data.mxene - created by mBuild; units = real

11600 atoms
10700 bonds
13200 angles
7800 dihedrals
0 impropers

12 atom types
11 bond types
19 angle types
15 dihedral types

0.000000 64.846440 xlo xhi
0.000000 55.552000 ylo yhi
0.000000 43.546200 zlo zhi

Masses

6	12.010780	# lopes_008
5	12.010780	# lopes_007
4	12.010780	# lopes_006
2	12.010780	# lopes_004
1	14.006720	# lopes_003
7	1.007947	# lopes_009
3	1.007947	# lopes_005
9	47.867100	# mxene_002
10	12.010780	# mxene_003
8	47.867100	# mxene_001
11	15.999430	# mxene_004
12	1.007947	# mxene_005

Pair Coeffs # lj 
#	epsilon (kcal/mol)		sigma (Angstrom)
6	0.06600		3.50000		# lopes_008
5	0.06600		3.50000		# lopes_007
4	0.06600		3.50000		# lopes_006
2	0.06600		3.50000		# lopes_004
1	0.17000		3.25000		# lopes_003
7	0.03000		2.50000		# lopes_009
3	0.03000		2.50000		# lopes_005
9	0.15535		3.16600		# mxene_002
10	0.15535		3.16600		# mxene_003
8	0.15535		3.16600		# mxene_001
11	0.01434		3.55320		# mxene_004
12	0.00000		3.16600		# mxene_005

Bond Coeffs # harmonic
#	k(kcal/mol/angstrom^2)		req(angstrom)
1	267.925		1.529		# lopes_004	lopes_006
2	267.925		1.529		# lopes_007	lopes_007
3	267.925		1.529		# lopes_007	lopes_008
4	267.925		1.529		# lopes_006	lopes_007
5	339.986		1.09		# lopes_007	lopes_009
6	339.986		1.09		# lopes_004	lopes_005
7	400.0		0.975		# mxene_004	mxene_005
8	336.998		1.08		# lopes_003	lopes_004
9	400.0		2.115		# mxene_001	mxene_004
10	339.986		1.09		# lopes_008	lopes_009
11	339.986		1.09		# lopes_006	lopes_009

Angle Coeffs # harmonic
#	reduced_k		theteq(deg)
1	37.5		110.70100	# lopes_008	lopes_007	lopes_009
2	50.0		112.70000	# lopes_006	lopes_007	lopes_007
3	50.0		112.70000	# lopes_007	lopes_007	lopes_008
4	58.353		112.70000	# lopes_003	lopes_004	lopes_006
5	50.0		109.50000	# lopes_004	lopes_003	lopes_004
6	37.5		110.70100	# lopes_007	lopes_006	lopes_009
7	32.995		107.80200	# lopes_009	lopes_008	lopes_009
8	50.0		112.70000	# lopes_007	lopes_007	lopes_007
9	100.0		109.47000	# mxene_001	mxene_004	mxene_005
10	32.995		107.80200	# lopes_009	lopes_006	lopes_009
11	58.353		112.70100	# lopes_004	lopes_006	lopes_007
12	32.995		107.80200	# lopes_009	lopes_007	lopes_009
13	58.353		112.70100	# lopes_007	lopes_008	lopes_009
14	37.5		110.70100	# lopes_006	lopes_007	lopes_009
15	37.5		110.70100	# lopes_004	lopes_006	lopes_009
16	18.714		110.70000	# lopes_007	lopes_007	lopes_009
17	37.5		110.70000	# lopes_003	lopes_004	lopes_005
18	32.995		107.80200	# lopes_005	lopes_004	lopes_005
19	37.5		110.70100	# lopes_005	lopes_004	lopes_006

Dihedral Coeffs # opls
#	f1(kcal/mol)	f2(kcal/mol)	f3(kcal/mol)	f4(kcal/mol)
1	-0.00000	0.00000		0.36600		-0.00000	# lopes_007	lopes_007	lopes_007	lopes_009
2	1.74100	-0.15800		0.27900		-0.00000	# lopes_008	lopes_007	lopes_007	lopes_007
3	1.74100	-0.15800		0.27900		-0.00000	# lopes_007	lopes_007	lopes_006	lopes_004
4	-0.00000	0.00000		0.36600		-0.00000	# lopes_007	lopes_007	lopes_006	lopes_009
5	-0.00000	0.00000		0.36600		-0.00000	# lopes_004	lopes_006	lopes_007	lopes_009
6	-0.00000	0.00000		0.36600		-0.00000	# lopes_007	lopes_007	lopes_008	lopes_009
7	0.00000	0.00000		0.31800		-0.00000	# lopes_009	lopes_007	lopes_007	lopes_009
8	0.00000	0.00000		0.31800		-0.00000	# lopes_009	lopes_007	lopes_006	lopes_009
9	1.74100	-0.15800		0.27900		-0.00000	# lopes_007	lopes_007	lopes_007	lopes_006
10	-0.00000	0.00000		0.36600		-0.00000	# lopes_006	lopes_007	lopes_007	lopes_009
11	0.00000	0.00000		0.31800		-0.00000	# lopes_009	lopes_008	lopes_007	lopes_009
12	1.74100	-0.15800		0.27900		-0.00000	# lopes_007	lopes_007	lopes_007	lopes_007
13	-0.00000	0.00000		0.36600		-0.00000	# lopes_008	lopes_007	lopes_007	lopes_009
14	0.00000	0.00000		0.31800		-0.00000	# lopes_009	lopes_006	lopes_004	lopes_005
15	-0.00000	0.00000		0.36600		-0.00000	# lopes_007	lopes_006	lopes_004	lopes_005

Atoms

1	0	6	-0.180000	0.392786	35.020236	12.170806
2	0	5	-0.120000	1.909395	35.014461	12.177744
3	0	5	-0.120000	2.434641	34.100097	13.276428
4	0	5	-0.120000	3.955019	34.095632	13.281795
5	0	5	-0.120000	4.472354	33.181464	14.380242
6	0	5	-0.120000	5.990895	33.188421	14.371884
7	0	5	-0.120000	6.516532	32.279647	15.463851
8	0	5	-0.120000	8.037737	32.289795	15.451659
9	0	4	0.010000	8.529482	31.372176	16.554254
10	0	2	-0.170000	10.049941	31.335461	16.598370
11	0	1	0.120000	10.563286	30.409633	17.710830
12	0	2	-0.170000	10.105983	30.893745	19.082959
13	0	2	-0.170000	10.105985	28.972403	17.483949
14	0	2	-0.170000	12.090798	30.438408	17.676256
15	0	7	0.060000	0.020964	35.678035	11.380404
16	0	7	0.060000	0.002111	35.376959	13.128906
17	0	7	0.060000	0.002111	34.013284	11.994009
18	0	7	0.060000	2.280163	36.034152	12.332424
19	0	7	0.060000	2.280163	34.677175	11.203099
20	0	7	0.060000	2.064154	33.079557	13.122981
21	0	7	0.060000	2.064153	34.436324	14.252132
22	0	7	0.060000	4.332758	35.112638	13.439822
23	0	7	0.060000	4.332759	33.755542	12.310398
24	0	7	0.060000	4.102381	32.160849	14.226770
25	0	7	0.060000	4.102380	33.517731	15.356016
26	0	7	0.060000	6.362163	34.207400	14.528485
27	0	7	0.060000	6.362164	32.849376	13.398288
28	0	7	0.060000	6.146522	31.258432	15.312398
29	0	7	0.060000	6.146521	32.614037	16.440581
30	0	7	0.060000	8.410102	33.307525	15.611818
31	0	7	0.060000	8.410103	31.947478	14.479938
32	0	7	0.060000	8.119407	30.375045	16.372901
33	0	7	0.060000	8.119406	31.731594	17.501870
34	0	3	0.130000	10.458632	32.334346	16.790202
35	0	3	0.130000	10.458633	30.965420	15.650933
36	0	3	0.130000	9.016806	30.817922	19.147367
37	0	3	0.130000	10.429145	31.930403	19.208471
38	0	3	0.130000	10.555890	30.251171	19.843952
39	0	3	0.130000	9.016807	28.922835	17.570207
40	0	3	0.130000	10.555891	28.340758	18.254038
41	0	3	0.130000	10.429148	28.660719	16.487322
42	0	3	0.130000	12.421205	31.467064	17.845753
43	0	3	0.130000	12.421206	30.084924	16.695486
44	0	3	0.130000	12.464513	29.780519	18.466764
45	1	6	-0.180000	13.943602	30.325996	12.168524
46	1	5	-0.120000	15.460211	30.320221	12.175462
47	1	5	-0.120000	15.985457	29.405857	13.274146
48	1	5	-0.120000	17.505835	29.401392	13.279513
49	1	5	-0.120000	18.023170	28.487224	14.377960
50	1	5	-0.120000	19.541711	28.494181	14.369602
51	1	5	-0.120000	20.067348	27.585407	15.461569
52	1	5	-0.120000	21.588553	27.595555	15.449377
53	1	4	0.010000	22.080298	26.677936	16.551972
54	1	2	-0.170000	23.600757	26.641221	16.596088
55	1	1	0.120000	24.114102	25.715393	17.708548
56	1	2	-0.170000	23.656799	26.199505	19.080677
57	1	2	-0.170000	23.656801	24.278163	17.481667
58	1	2	-0.170000	25.641614	25.744168	17.673974
59	1	7	0.060000	13.571780	30.983795	11.378122
60	1	7	0.060000	13.552927	30.682719	13.126624
61	1	7	0.060000	13.552927	29.319044	11.991727
62	1	7	0.060000	15.830979	31.339912	12.330142
63	1	7	0.060000	15.830979	29.982935	11.200817
64	1	7	0.060000	15.614970	28.385317	13.120699
65	1	7	0.060000	15.614969	29.742084	14.249850
66	1	7	0.060000	17.883574	30.418398	13.437540
67	1	7	0.060000	17.883575	29.061302	12.308116
68	1	7	0.060000	17.653197	27.466609	14.224488
69	1	7	0.060000	17.653196	28.823491	15.353734
70	1	7	0.060000	19.912979	29.513160	14.526203
71	1	7	0.060000	19.912980	28.155136	13.396006
72	1	7	0.060000	19.697338	26.564192	15.310116
73	1	7	0.060000	19.697337	27.919797	16.438299
74	1	7	0.060000	21.960918	28.613285	15.609536
75	1	7	0.060000	21.960919	27.253238	14.477656
76	1	7	0.060000	21.670223	25.680805	16.370619
77	1	7	0.060000	21.670222	27.037354	17.499588
78	1	3	0.130000	24.009448	27.640106	16.787920
79	1	3	0.130000	24.009449	26.271180	15.648651
80	1	3	0.130000	22.567622	26.123682	19.145085
81	1	3	0.130000	23.979961	27.236163	19.206189
82	1	3	0.130000	24.106706	25.556931	19.841670
83	1	3	0.130000	22.567623	24.228595	17.567925
84	1	3	0.130000	24.106707	23.646518	18.251756
85	1	3	0.130000	23.979964	23.966479	16.485040
86	1	3	0.130000	25.972021	26.772824	17.843471
87	1	3	0.130000	25.972022	25.390684	16.693204
88	1	3	0.130000	26.015329	25.086279	18.464482
89	2	6	-0.180000	20.942059	36.630457	12.171961
90	2	5	-0.120000	22.458668	36.624682	12.178899
91	2	5	-0.120000	22.983914	35.710318	13.277583
92	2	5	-0.120000	24.504292	35.705853	13.282950
93	2	5	-0.120000	25.021627	34.791685	14.381397
94	2	5	-0.120000	26.540168	34.798642	14.373039
95	2	5	-0.120000	27.065805	33.889868	15.465006
96	2	5	-0.120000	28.587010	33.900016	15.452814
97	2	4	0.010000	29.078755	32.982397	16.555409
98	2	2	-0.170000	30.599214	32.945682	16.599525
99	2	1	0.120000	31.112559	32.019854	17.711985
100	2	2	-0.170000	30.655256	32.503966	19.084114
101	2	2	-0.170000	30.655258	30.582624	17.485104
102	2	2	-0.170000	32.640071	32.048629	17.677411
103	2	7	0.060000	20.570237	37.288256	11.381559
104	2	7	0.060000	20.551384	36.987180	13.130061
105	2	7	0.060000	20.551384	35.623505	11.995164
106	2	7	0.060000	22.829436	37.644373	12.333579
107	2	7	0.060000	22.829436	36.287396	11.204254
108	2	7	0.060000	22.613427	34.689778	13.124136
109	2	7	0.060000	22.613426	36.046545	14.253287
110	2	7	0.060000	24.882031	36.722859	13.440977
111	2	7	0.060000	24.882032	35.365763	12.311553
112	2	7	0.060000	24.651654	33.771070	14.227925
113	2	7	0.060000	24.651653	35.127952	15.357171
114	2	7	0.060000	26.911436	35.817621	14.529640
115	2	7	0.060000	26.911437	34.459597	13.399443
116	2	7	0.060000	26.695795	32.868653	15.313553
117	2	7	0.060000	26.695794	34.224258	16.441736
118	2	7	0.060000	28.959375	34.917746	15.612973
119	2	7	0.060000	28.959376	33.557699	14.481093
120	2	7	0.060000	28.668680	31.985266	16.374056
121	2	7	0.060000	28.668679	33.341815	17.503025
122	2	3	0.130000	31.007905	33.944567	16.791357
123	2	3	0.130000	31.007906	32.575641	15.652088
124	2	3	0.130000	29.566079	32.428143	19.148522
125	2	3	0.130000	30.978418	33.540624	19.209626
126	2	3	0.130000	31.105163	31.861392	19.845107
127	2	3	0.130000	29.566080	30.533056	17.571362
128	2	3	0.130000	31.105164	29.950979	18.255193
129	2	3	0.130000	30.978421	30.270940	16.488477
130	2	3	0.130000	32.970478	33.077285	17.846908
131	2	3	0.130000	32.970479	31.695145	16.696641
132	2	3	0.130000	33.013786	31.390740	18.467919
133	3	6	-0.180000	50.773683	40.632761	12.170549
134	3	5	-0.120000	52.290292	40.626986	12.177487
135	3	5	-0.120000	52.815538	39.712622	13.276171
136	3	5	-0.120000	54.335916	39.708157	13.281538
137	3	5	-0.120000	54.853251	38.793989	14.379985
138	3	5	-0.120000	56.371792	38.800946	14.371627
139	3	5	-0.120000	56.897429	37.892172	15.463594
140	3	5	-0.120000	58.418634	37.902320	15.451402
141	3	4	0.010000	58.910379	36.984701	16.553997
142	3	2	-0.170000	60.430838	36.947986	16.598113
143	3	1	0.120000	60.944183	36.022158	17.710573
144	3	2	-0.170000	60.486880	36.506270	19.082702
145	3	2	-0.170000	60.486882	34.584928	17.483692
146	3	2	-0.170000	62.471695	36.050933	17.675999
147	3	7	0.060000	50.401861	41.290560	11.380147
148	3	7	0.060000	50.383008	40.989484	13.128649
149	3	7	0.060000	50.383008	39.625809	11.993752
150	3	7	0.060000	52.661060	41.646677	12.332167
151	3	7	0.060000	52.661060	40.289700	11.202842
152	3	7	0.060000	52.445051	38.692082	13.122724
153	3	7	0.060000	52.445050	40.048849	14.251875
154	3	7	0.060000	54.713655	40.725163	13.439565
155	3	7	0.060000	54.713656	39.368067	12.310141
156	3	7	0.060000	54.483278	37.773374	14.226513
157	3	7	0.060000	54.483277	39.130256	15.355759
158	3	7	0.060000	56.743060	39.819925	14.528228
159	3	7	0.060000	56.743061	38.461901	13.398031
160	3	7	0.060000	56.527419	36.870957	15.312141
161	3	7	0.060000	56.527418	38.226562	16.440324
162	3	7	0.060000	58.790999	38.920050	15.611561
163	3	7	0.060000	58.791000	37.560003	14.479681
164	3	7	0.060000	58.500304	35.987570	16.372644
165	3	7	0.060000	58.500303	37.344119	17.501613
166	3	3	0.130000	60.839529	37.946871	16.789945
167	3	3	0.130000	60.839530	36.577945	15.650676
168	3	3	0.130000	59.397703	36.430447	19.147110
169	3	3	0.130000	60.810042	37.542928	19.208214
170	3	3	0.130000	60.936787	35.863696	19.843695
171	3	3	0.130000	59.397704	34.535360	17.569950
172	3	3	0.130000	60.936788	33.953283	18.253781
173	3	3	0.130000	60.810045	34.273244	16.487065
174	3	3	0.130000	62.802102	37.079589	17.845496
175	3	3	0.130000	62.802103	35.697449	16.695229
176	3	3	0.130000	62.845410	35.393044	18.466507
177	4	6	-0.180000	0.391602	48.036481	12.173350
178	4	5	-0.120000	1.908211	48.030706	12.180288
179	4	5	-0.120000	2.433457	47.116342	13.278972
180	4	5	-0.120000	3.953835	47.111877	13.284339
181	4	5	-0.120000	4.471170	46.197709	14.382786
182	4	5	-0.120000	5.989711	46.204666	14.374428
183	4	5	-0.120000	6.515348	45.295892	15.466395
184	4	5	-0.120000	8.036553	45.306040	15.454203
185	4	4	0.010000	8.528298	44.388421	16.556798
186	4	2	-0.170000	10.048757	44.351706	16.600914
187	4	1	0.120000	10.562102	43.425878	17.713374
188	4	2	-0.170000	10.104799	43.909990	19.085503
189	4	2	-0.170000	10.104801	41.988648	17.486493
190	4	2	-0.170000	12.089614	43.454653	17.678800
191	4	7	0.060000	0.019780	48.694280	11.382948
192	4	7	0.060000	0.000927	48.393204	13.131450
193	4	7	0.060000	0.000927	47.029529	11.996553
194	4	7	0.060000	2.278979	49.050397	12.334968
195	4	7	0.060000	2.278979	47.693420	11.205643
196	4	7	0.060000	2.062970	46.095802	13.125525
197	4	7	0.060000	2.062969	47.452569	14.254676
198	4	7	0.060000	4.331574	48.128883	13.442366
199	4	7	0.060000	4.331575	46.771787	12.312942
200	4	7	0.060000	4.101197	45.177094	14.229314
201	4	7	0.060000	4.101196	46.533976	15.358560
202	4	7	0.060000	6.360979	47.223645	14.531029
203	4	7	0.060000	6.360980	45.865621	13.400832
204	4	7	0.060000	6.145338	44.274677	15.314942
205	4	7	0.060000	6.145337	45.630282	16.443125
206	4	7	0.060000	8.408918	46.323770	15.614362
207	4	7	0.060000	8.408919	44.963723	14.482482
208	4	7	0.060000	8.118223	43.391290	16.375445
209	4	7	0.060000	8.118222	44.747839	17.504414
210	4	3	0.130000	10.457448	45.350591	16.792746
211	4	3	0.130000	10.457449	43.981665	15.653477
212	4	3	0.130000	9.015622	43.834167	19.149911
213	4	3	0.130000	10.427961	44.946648	19.211015
214	4	3	0.130000	10.554706	43.267416	19.846496
215	4	3	0.130000	9.015623	41.939080	17.572751
216	4	3	0.130000	10.554707	41.357003	18.256582
217	4	3	0.130000	10.427964	41.676964	16.489866
218	4	3	0.130000	12.420021	44.483309	17.848297
219	4	3	0.130000	12.420022	43.101169	16.698030
220	4	3	0.130000	12.463329	42.796764	18.469308
221	5	6	-0.180000	34.321963	27.621185	12.171272
222	5	5	-0.120000	35.838572	27.615410	12.178210
223	5	5	-0.120000	36.363818	26.701046	13.276894
224	5	5	-0.120000	37.884196	26.696581	13.282261
225	5	5	-0.120000	38.401531	25.782413	14.380708
226	5	5	-0.120000	39.920072	25.789370	14.372350
227	5	5	-0.120000	40.445709	24.880596	15.464317
228	5	5	-0.120000	41.966914	24.890744	15.452125
229	5	4	0.010000	42.458659	23.973125	16.554720
230	5	2	-0.170000	43.979118	23.936410	16.598836
231	5	1	0.120000	44.492463	23.010582	17.711296
232	5	2	-0.170000	44.035160	23.494694	19.083425
233	5	2	-0.170000	44.035162	21.573352	17.484415
234	5	2	-0.170000	46.019975	23.039357	17.676722
235	5	7	0.060000	33.950141	28.278984	11.380870
236	5	7	0.060000	33.931288	27.977908	13.129372
237	5	7	0.060000	33.931288	26.614233	11.994475
238	5	7	0.060000	36.209340	28.635101	12.332890
239	5	7	0.060000	36.209340	27.278124	11.203565
240	5	7	0.060000	35.993331	25.680506	13.123447
241	5	7	0.060000	35.993330	27.037273	14.252598
242	5	7	0.060000	38.261935	27.713587	13.440288
243	5	7	0.060000	38.261936	26.356491	12.310864
244	5	7	0.060000	38.031558	24.761798	14.227236
245	5	7	0.060000	38.031557	26.118680	15.356482
246	5	7	0.060000	40.291340	26.808349	14.528951
247	5	7	0.060000	40.291341	25.450325	13.398754
248	5	7	0.060000	40.075699	23.859381	15.312864
249	5	7	0.060000	40.075698	25.214986	16.441047
250	5	7	0.060000	42.339279	25.908474	15.612284
251	5	7	0.060000	42.339280	24.548427	14.480404
252	5	7	0.060000	42.048584	22.975994	16.373367
253	5	7	0.060000	42.048583	24.332543	17.502336
254	5	3	0.130000	44.387809	24.935295	16.790668
255	5	3	0.130000	44.387810	23.566369	15.651399
256	5	3	0.130000	42.945983	23.418871	19.147833
257	5	3	0.130000	44.358322	24.531352	19.208937
258	5	3	0.130000	44.485067	22.852120	19.844418
259	5	3	0.130000	42.945984	21.523784	17.570673
260	5	3	0.130000	44.485068	20.941707	18.254504
261	5	3	0.130000	44.358325	21.261668	16.487788
262	5	3	0.130000	46.350382	24.068013	17.846219
263	5	3	0.130000	46.350383	22.685873	16.695952
264	5	3	0.130000	46.393690	22.381468	18.467230
265	6	6	-0.180000	50.772255	25.131947	12.170280
266	6	5	-0.120000	52.288864	25.126172	12.177218
267	6	5	-0.120000	52.814110	24.211808	13.275902
268	6	5	-0.120000	54.334488	24.207343	13.281269
269	6	5	-0.120000	54.851823	23.293175	14.379716
270	6	5	-0.120000	56.370364	23.300132	14.371358
271	6	5	-0.120000	56.896001	22.391358	15.463325
272	6	5	-0.120000	58.417206	22.401506	15.451133
273	6	4	0.010000	58.908951	21.483887	16.553728
274	6	2	-0.170000	60.429410	21.447172	16.597844
275	6	1	0.120000	60.942755	20.521344	17.710304
276	6	2	-0.170000	60.485452	21.005456	19.082434
277	6	2	-0.170000	60.485454	19.084114	17.483423
278	6	2	-0.170000	62.470267	20.550119	17.675731
279	6	7	0.060000	50.400433	25.789746	11.379878
280	6	7	0.060000	50.381580	25.488670	13.128380
281	6	7	0.060000	50.381580	24.124995	11.993483
282	6	7	0.060000	52.659632	26.145863	12.331898
283	6	7	0.060000	52.659632	24.788886	11.202573
284	6	7	0.060000	52.443623	23.191268	13.122455
285	6	7	0.060000	52.443622	24.548035	14.251606
286	6	7	0.060000	54.712227	25.224349	13.439296
287	6	7	0.060000	54.712228	23.867253	12.309872
288	6	7	0.060000	54.481850	22.272560	14.226244
289	6	7	0.060000	54.481849	23.629442	15.355490
290	6	7	0.060000	56.741632	24.319111	14.527959
291	6	7	0.060000	56.741633	22.961087	13.397762
292	6	7	0.060000	56.525991	21.370143	15.311872
293	6	7	0.060000	56.525990	22.725748	16.440055
294	6	7	0.060000	58.789571	23.419236	15.611292
295	6	7	0.060000	58.789572	22.059189	14.479412
296	6	7	0.060000	58.498876	20.486756	16.372376
297	6	7	0.060000	58.498875	21.843305	17.501344
298	6	3	0.130000	60.838101	22.446057	16.789676
299	6	3	0.130000	60.838102	21.077131	15.650407
300	6	3	0.130000	59.396275	20.929633	19.146841
301	6	3	0.130000	60.808614	22.042114	19.207945
302	6	3	0.130000	60.935359	20.362882	19.843426
303	6	3	0.130000	59.396276	19.034546	17.569681
304	6	3	0.130000	60.935360	18.452469	18.253512
305	6	3	0.130000	60.808617	18.772430	16.486797
306	6	3	0.130000	62.800674	21.578775	17.845228
307	6	3	0.130000	62.800675	20.196635	16.694960
308	6	3	0.130000	62.843982	19.892230	18.466238
309	7	6	-0.180000	36.610719	45.487265	12.169817
310	7	5	-0.120000	38.127328	45.481490	12.176755
311	7	5	-0.120000	38.652574	44.567126	13.275439
312	7	5	-0.120000	40.172952	44.562661	13.280806
313	7	5	-0.120000	40.690287	43.648493	14.379253
314	7	5	-0.120000	42.208828	43.655450	14.370895
315	7	5	-0.120000	42.734465	42.746676	15.462862
316	7	5	-0.120000	44.255670	42.756824	15.450670
317	7	4	0.010000	44.747415	41.839205	16.553265
318	7	2	-0.170000	46.267874	41.802490	16.597381
319	7	1	0.120000	46.781219	40.876662	17.709841
320	7	2	-0.170000	46.323916	41.360774	19.081970
321	7	2	-0.170000	46.323918	39.439432	17.482960
322	7	2	-0.170000	48.308731	40.905437	17.675267
323	7	7	0.060000	36.238897	46.145064	11.379415
324	7	7	0.060000	36.220044	45.843988	13.127917
325	7	7	0.060000	36.220044	44.480313	11.993020
326	7	7	0.060000	38.498096	46.501181	12.331435
327	7	7	0.060000	38.498096	45.144204	11.202110
328	7	7	0.060000	38.282087	43.546586	13.121992
329	7	7	0.060000	38.282086	44.903353	14.251143
330	7	7	0.060000	40.550691	45.579667	13.438833
331	7	7	0.060000	40.550692	44.222571	12.309409
332	7	7	0.060000	40.320314	42.627878	14.225781
333	7	7	0.060000	40.320313	43.984760	15.355027
334	7	7	0.060000	42.580096	44.674429	14.527496
335	7	7	0.060000	42.580097	43.316405	13.397299
336	7	7	0.060000	42.364455	41.725461	15.311409
337	7	7	0.060000	42.364454	43.081066	16.439592
338	7	7	0.060000	44.628035	43.774554	15.610829
339	7	7	0.060000	44.628036	42.414507	14.478949
340	7	7	0.060000	44.337340	40.842074	16.371912
341	7	7	0.060000	44.337339	42.198623	17.500881
342	7	3	0.130000	46.676565	42.801375	16.789213
343	7	3	0.130000	46.676566	41.432449	15.649944
344	7	3	0.130000	45.234739	41.284951	19.146378
345	7	3	0.130000	46.647078	42.397432	19.207482
346	7	3	0.130000	46.773823	40.718200	19.842963
347	7	3	0.130000	45.234740	39.389864	17.569218
348	7	3	0.130000	46.773824	38.807787	18.253049
349	7	3	0.130000	46.647081	39.127748	16.486333
350	7	3	0.130000	48.639138	41.934093	17.844764
351	7	3	0.130000	48.639139	40.551953	16.694497
352	7	3	0.130000	48.682446	40.247548	18.465775
353	8	6	-0.180000	13.134715	42.215927	12.172020
354	8	5	-0.120000	14.651324	42.210152	12.178958
355	8	5	-0.120000	15.176570	41.295788	13.277642
356	8	5	-0.120000	16.696948	41.291323	13.283009
357	8	5	-0.120000	17.214283	40.377155	14.381456
358	8	5	-0.120000	18.732824	40.384112	14.373098
359	8	5	-0.120000	19.258461	39.475338	15.465065
360	8	5	-0.120000	20.779666	39.485486	15.452873
361	8	4	0.010000	21.271411	38.567867	16.555468
362	8	2	-0.170000	22.791870	38.531152	16.599584
363	8	1	0.120000	23.305215	37.605324	17.712044
364	8	2	-0.170000	22.847912	38.089436	19.084173
365	8	2	-0.170000	22.847914	36.168094	17.485163
366	8	2	-0.170000	24.832727	37.634099	17.677470
367	8	7	0.060000	12.762893	42.873726	11.381618
368	8	7	0.060000	12.744040	42.572650	13.130120
369	8	7	0.060000	12.744040	41.208975	11.995223
370	8	7	0.060000	15.022092	43.229843	12.333638
371	8	7	0.060000	15.022092	41.872866	11.204313
372	8	7	0.060000	14.806083	40.275248	13.124195
373	8	7	0.060000	14.806082	41.632015	14.253346
374	8	7	0.060000	17.074687	42.308329	13.441036
375	8	7	0.060000	17.074688	40.951233	12.311612
376	8	7	0.060000	16.844310	39.356540	14.227984
377	8	7	0.060000	16.844309	40.713422	15.357230
378	8	7	0.060000	19.104092	41.403091	14.529699
379	8	7	0.060000	19.104093	40.045067	13.399502
380	8	7	0.060000	18.888451	38.454123	15.313612
381	8	7	0.060000	18.888450	39.809728	16.441795
382	8	7	0.060000	21.152031	40.503216	15.613032
383	8	7	0.060000	21.152032	39.143169	14.481152
384	8	7	0.060000	20.861336	37.570736	16.374115
385	8	7	0.060000	20.861335	38.927285	17.503084
386	8	3	0.130000	23.200561	39.530037	16.791416
387	8	3	0.130000	23.200562	38.161111	15.652147
388	8	3	0.130000	21.758735	38.013613	19.148581
389	8	3	0.130000	23.171074	39.126094	19.209685
390	8	3	0.130000	23.297819	37.446862	19.845166
391	8	3	0.130000	21.758736	36.118526	17.571421
392	8	3	0.130000	23.297820	35.536449	18.255252
393	8	3	0.130000	23.171077	35.856410	16.488536
394	8	3	0.130000	25.163134	38.662755	17.846967
395	8	3	0.130000	25.163135	37.280615	16.696700
396	8	3	0.130000	25.206442	36.976210	18.467978
397	9	6	-0.180000	14.754564	35.816263	12.169988
398	9	5	-0.120000	16.271173	35.810488	12.176926
399	9	5	-0.120000	16.796419	34.896124	13.275610
400	9	5	-0.120000	18.316797	34.891659	13.280977
401	9	5	-0.120000	18.834132	33.977491	14.379424
402	9	5	-0.120000	20.352673	33.984448	14.371066
403	9	5	-0.120000	20.878310	33.075674	15.463033
404	9	5	-0.120000	22.399515	33.085822	15.450841
405	9	4	0.010000	22.891260	32.168203	16.553436
406	9	2	-0.170000	24.411719	32.131488	16.597552
407	9	1	0.120000	24.925064	31.205660	17.710012
408	9	2	-0.170000	24.467761	31.689772	19.082141
409	9	2	-0.170000	24.467763	29.768430	17.483131
410	9	2	-0.170000	26.452576	31.234435	17.675438
411	9	7	0.060000	14.382742	36.474062	11.379586
412	9	7	0.060000	14.363889	36.172986	13.128088
413	9	7	0.060000	14.363889	34.809311	11.993191
414	9	7	0.060000	16.641941	36.830179	12.331606
415	9	7	0.060000	16.641941	35.473202	11.202281
416	9	7	0.060000	16.425932	33.875584	13.122163
417	9	7	0.060000	16.425931	35.232351	14.251314
418	9	7	0.060000	18.694536	35.908665	13.439004
419	9	7	0.060000	18.694537	34.551569	12.309580
420	9	7	0.060000	18.464159	32.956876	14.225952
421	9	7	0.060000	18.464158	34.313758	15.355198
422	9	7	0.060000	20.723941	35.003427	14.527667
423	9	7	0.060000	20.723942	33.645403	13.397470
424	9	7	0.060000	20.508300	32.054459	15.311580
425	9	7	0.060000	20.508299	33.410064	16.439763
426	9	7	0.060000	22.771880	34.103552	15.611000
427	9	7	0.060000	22.771881	32.743505	14.479120
428	9	7	0.060000	22.481185	31.171072	16.372083
429	9	7	0.060000	22.481184	32.527621	17.501052
430	9	3	0.130000	24.820410	33.130373	16.789384
431	9	3	0.130000	24.820411	31.761447	15.650115
432	9	3	0.130000	23.378584	31.613949	19.146549
433	9	3	0.130000	24.790923	32.726430	19.207653
434	9	3	0.130000	24.917668	31.047198	19.843134
435	9	3	0.130000	23.378585	29.718862	17.569389
436	9	3	0.130000	24.917669	29.136785	18.253220
437	9	3	0.130000	24.790926	29.456746	16.486504
438	9	3	0.130000	26.782983	32.263091	17.844935
439	9	3	0.130000	26.782984	30.880951	16.694668
440	9	3	0.130000	26.826291	30.576546	18.465946
441	10	6	-0.180000	9.972218	11.917897	12.170555
442	10	5	-0.120000	11.488827	11.912122	12.177493
443	10	5	-0.120000	12.014073	10.997758	13.276177
444	10	5	-0.120000	13.534451	10.993293	13.281544
445	10	5	-0.120000	14.051786	10.079125	14.379991
446	10	5	-0.120000	15.570327	10.086082	14.371633
447	10	5	-0.120000	16.095964	9.177308	15.463600
448	10	5	-0.120000	17.617169	9.187456	15.451408
449	10	4	0.010000	18.108914	8.269837	16.554003
450	10	2	-0.170000	19.629373	8.233122	16.598119
451	10	1	0.120000	20.142718	7.307294	17.710579
452	10	2	-0.170000	19.685415	7.791406	19.082708
453	10	2	-0.170000	19.685417	5.870064	17.483698
454	10	2	-0.170000	21.670230	7.336069	17.676005
455	10	7	0.060000	9.600396	12.575696	11.380153
456	10	7	0.060000	9.581543	12.274620	13.128655
457	10	7	0.060000	9.581543	10.910945	11.993758
458	10	7	0.060000	11.859595	12.931813	12.332173
459	10	7	0.060000	11.859595	11.574836	11.202848
460	10	7	0.060000	11.643586	9.977218	13.122730
461	10	7	0.060000	11.643585	11.333985	14.251881
462	10	7	0.060000	13.912190	12.010299	13.439571
463	10	7	0.060000	13.912191	10.653203	12.310147
464	10	7	0.060000	13.681813	9.058510	14.226519
465	10	7	0.060000	13.681812	10.415392	15.355765
466	10	7	0.060000	15.941595	11.105061	14.528234
467	10	7	0.060000	15.941596	9.747037	13.398037
468	10	7	0.060000	15.725954	8.156093	15.312147
469	10	7	0.060000	15.725953	9.511698	16.440330
470	10	7	0.060000	17.989534	10.205186	15.611567
471	10	7	0.060000	17.989535	8.845139	14.479687
472	10	7	0.060000	17.698839	7.272706	16.372650
473	10	7	0.060000	17.698838	8.629255	17.501619
474	10	3	0.130000	20.038064	9.232007	16.789951
475	10	3	0.130000	20.038065	7.863081	15.650682
476	10	3	0.130000	18.596238	7.715583	19.147116
477	10	3	0.130000	20.008577	8.828064	19.208220
478	10	3	0.130000	20.135322	7.148832	19.843701
479	10	3	0.130000	18.596239	5.820496	17.569956
480	10	3	0.130000	20.135323	5.238419	18.253787
481	10	3	0.130000	20.008580	5.558380	16.487071
482	10	3	0.130000	22.000637	8.364725	17.845502
483	10	3	0.130000	22.000638	6.982585	16.695235
484	10	3	0.130000	22.043945	6.678180	18.466513
485	11	6	-0.180000	26.575311	18.947329	12.174583
486	11	5	-0.120000	28.091920	18.941554	12.181521
487	11	5	-0.120000	28.617166	18.027190	13.280205
488	11	5	-0.120000	30.137544	18.022725	13.285572
489	11	5	-0.120000	30.654879	17.108557	14.384019
490	11	5	-0.120000	32.173420	17.115514	14.375661
491	11	5	-0.120000	32.699057	16.206740	15.467628
492	11	5	-0.120000	34.220262	16.216888	15.455436
493	11	4	0.010000	34.712007	15.299269	16.558031
494	11	2	-0.170000	36.232466	15.262554	16.602147
495	11	1	0.120000	36.745811	14.336726	17.714607
496	11	2	-0.170000	36.288508	14.820838	19.086736
497	11	2	-0.170000	36.288510	12.899496	17.487726
498	11	2	-0.170000	38.273323	14.365501	17.680033
499	11	7	0.060000	26.203489	19.605128	11.384181
500	11	7	0.060000	26.184636	19.304052	13.132683
501	11	7	0.060000	26.184636	17.940377	11.997786
502	11	7	0.060000	28.462688	19.961245	12.336201
503	11	7	0.060000	28.462688	18.604268	11.206876
504	11	7	0.060000	28.246679	17.006650	13.126758
505	11	7	0.060000	28.246678	18.363417	14.255909
506	11	7	0.060000	30.515283	19.039731	13.443599
507	11	7	0.060000	30.515284	17.682635	12.314175
508	11	7	0.060000	30.284906	16.087942	14.230547
509	11	7	0.060000	30.284905	17.444824	15.359793
510	11	7	0.060000	32.544688	18.134493	14.532262
511	11	7	0.060000	32.544689	16.776469	13.402065
512	11	7	0.060000	32.329047	15.185525	15.316175
513	11	7	0.060000	32.329046	16.541130	16.444358
514	11	7	0.060000	34.592627	17.234618	15.615595
515	11	7	0.060000	34.592628	15.874571	14.483715
516	11	7	0.060000	34.301932	14.302138	16.376678
517	11	7	0.060000	34.301931	15.658687	17.505647
518	11	3	0.130000	36.641157	16.261439	16.793979
519	11	3	0.130000	36.641158	14.892513	15.654710
520	11	3	0.130000	35.199331	14.745015	19.151144
521	11	3	0.130000	36.611670	15.857496	19.212248
522	11	3	0.130000	36.738415	14.178264	19.847729
523	11	3	0.130000	35.199332	12.849928	17.573984
524	11	3	0.130000	36.738416	12.267851	18.257815
525	11	3	0.130000	36.611673	12.587812	16.491099
526	11	3	0.130000	38.603730	15.394157	17.849530
527	11	3	0.130000	38.603731	14.012017	16.699263
528	11	3	0.130000	38.647038	13.707612	18.470541
529	12	6	-0.180000	49.666867	31.771268	12.170502
530	12	5	-0.120000	51.183476	31.765493	12.177440
531	12	5	-0.120000	51.708722	30.851129	13.276124
532	12	5	-0.120000	53.229100	30.846664	13.281491
533	12	5	-0.120000	53.746435	29.932496	14.379938
534	12	5	-0.120000	55.264976	29.939453	14.371580
535	12	5	-0.120000	55.790613	29.030679	15.463547
536	12	5	-0.120000	57.311818	29.040827	15.451355
537	12	4	0.010000	57.803563	28.123208	16.553950
538	12	2	-0.170000	59.324022	28.086493	16.598066
539	12	1	0.120000	59.837367	27.160665	17.710526
540	12	2	-0.170000	59.380064	27.644777	19.082655
541	12	2	-0.170000	59.380066	25.723435	17.483645
542	12	2	-0.170000	61.364879	27.189440	17.675952
543	12	7	0.060000	49.295045	32.429067	11.380100
544	12	7	0.060000	49.276192	32.127991	13.128602
545	12	7	0.060000	49.276192	30.764316	11.993705
546	12	7	0.060000	51.554244	32.785184	12.332120
547	12	7	0.060000	51.554244	31.428207	11.202795
548	12	7	0.060000	51.338235	29.830589	13.122677
549	12	7	0.060000	51.338234	31.187356	14.251828
550	12	7	0.060000	53.606839	31.863670	13.439518
551	12	7	0.060000	53.606840	30.506574	12.310094
552	12	7	0.060000	53.376462	28.911881	14.226466
553	12	7	0.060000	53.376461	30.268763	15.355712
554	12	7	0.060000	55.636244	30.958432	14.528181
555	12	7	0.060000	55.636245	29.600408	13.397984