data.mxene - created by mBuild; units = real

10470 atoms
9600 bonds
11010 angles
5870 dihedrals
50 impropers

20 atom types
20 bond types
33 angle types
32 dihedral types
8 improper types

0.000000 64.846440 xlo xhi
0.000000 55.552000 ylo yhi
0.000000 89.546200 zlo zhi

Masses

1	14.006720	# lopes_003
2	12.010780	# lopes_004
3	1.007947	# lopes_005
4	12.010780	# lopes_006
5	12.010780	# lopes_007
6	12.010780	# lopes_008
7	1.007947	# lopes_009
8	14.006720	# lopes_010
9	12.010780	# lopes_011
10	12.010780	# lopes_012
11	1.007947	# lopes_013
12	12.010780	# lopes_014
13	1.007947	# lopes_015
14	12.010780	# lopes_016
15	1.007947	# lopes_020
16	47.867100	# mxene_001
17	47.867100	# mxene_002
18	12.010780	# mxene_003
19	15.999430	# mxene_004
20	1.007947	# mxene_005

PairIJ Coeffs # modified lj
# type1 type2 	epsilon (kcal/mol) 	sigma (Angstrom)
1 	1 	0.17 		3.25		# lopes_003	lopes_003
1 	2 	0.10592373 		3.37268439		# lopes_003	lopes_004
1 	3 	0.07141428 		2.85043856		# lopes_003	lopes_005
1 	4 	0.10592373 		3.37268439		# lopes_003	lopes_006
1 	5 	0.10592373 		3.37268439		# lopes_003	lopes_007
1 	6 	0.10592373 		3.37268439		# lopes_003	lopes_008
1 	7 	0.07141428 		2.85043856		# lopes_003	lopes_009
1 	8 	0.17 		3.25		# lopes_003	lopes_010
1 	9 	0.10908712 		3.39668956		# lopes_003	lopes_011
1 	10 	0.10908712 		3.39668956		# lopes_003	lopes_012
1 	11 	0.07141428 		2.80446073		# lopes_003	lopes_013
1 	12 	0.10592373 		3.37268439		# lopes_003	lopes_014
1 	13 	0.07141428 		2.85043856		# lopes_003	lopes_015
1 	14 	0.10592373 		3.37268439		# lopes_003	lopes_016
1 	15 	0.07141428 		2.85043856		# lopes_003	lopes_020
1 	16 	0.16251195 		3.20772505		# lopes_003	mxene_001
1 	17 	0.16251195 		3.20772505		# lopes_003	mxene_002
1 	18 	0.16251195 		3.20772505		# lopes_003	mxene_003
1 	19 	0.04937467 		3.39822012		# lopes_003	mxene_004
1 	20 	0.0 		3.20772505		# lopes_003	mxene_005
2 	2 	0.06599904 		3.5		# lopes_004	lopes_004
2 	3 	0.04449687 		2.95803989		# lopes_004	lopes_005
2 	4 	0.06599904 		3.5		# lopes_004	lopes_006
2 	5 	0.06599904 		3.5		# lopes_004	lopes_007
2 	6 	0.06599904 		3.5		# lopes_004	lopes_008
2 	7 	0.04449687 		2.95803989		# lopes_004	lopes_009
2 	8 	0.10592373 		3.37268439		# lopes_004	lopes_010
2 	9 	0.06797009 		3.52491135		# lopes_004	lopes_011
2 	10 	0.06797009 		3.52491135		# lopes_004	lopes_012
2 	11 	0.04449687 		2.91032644		# lopes_004	lopes_013
2 	12 	0.06599904 		3.5		# lopes_004	lopes_014
2 	13 	0.04449687 		2.95803989		# lopes_004	lopes_015
2 	14 	0.06599904 		3.5		# lopes_004	lopes_016
2 	15 	0.04449687 		2.95803989		# lopes_004	lopes_020
2 	16 	0.10125807 		3.3288136		# lopes_004	mxene_001
2 	17 	0.10125807 		3.3288136		# lopes_004	mxene_002
2 	18 	0.10125807 		3.3288136		# lopes_004	mxene_003
2 	19 	0.03076441 		3.52649968		# lopes_004	mxene_004
2 	20 	0.0 		3.3288136		# lopes_004	mxene_005
3 	3 	0.03 		2.5		# lopes_005	lopes_005
3 	4 	0.04449687 		2.95803989		# lopes_005	lopes_006
3 	5 	0.04449687 		2.95803989		# lopes_005	lopes_007
3 	6 	0.04449687 		2.95803989		# lopes_005	lopes_008
3 	7 	0.03 		2.5		# lopes_005	lopes_009
3 	8 	0.07141428 		2.85043856		# lopes_005	lopes_010
3 	9 	0.04582576 		2.97909382		# lopes_005	lopes_011
3 	10 	0.04582576 		2.97909382		# lopes_005	lopes_012
3 	11 	0.03 		2.45967478		# lopes_005	lopes_013
3 	12 	0.04449687 		2.95803989		# lopes_005	lopes_014
3 	13 	0.03 		2.5		# lopes_005	lopes_015
3 	14 	0.04449687 		2.95803989		# lopes_005	lopes_016
3 	15 	0.03 		2.5		# lopes_005	lopes_020
3 	16 	0.06826867 		2.81336098		# lopes_005	mxene_001
3 	17 	0.06826867 		2.81336098		# lopes_005	mxene_002
3 	18 	0.06826867 		2.81336098		# lopes_005	mxene_003
3 	19 	0.02074151 		2.98043621		# lopes_005	mxene_004
3 	20 	0.0 		2.81336098		# lopes_005	mxene_005
4 	4 	0.06599904 		3.5		# lopes_006	lopes_006
4 	5 	0.06599904 		3.5		# lopes_006	lopes_007
4 	6 	0.06599904 		3.5		# lopes_006	lopes_008
4 	7 	0.04449687 		2.95803989		# lopes_006	lopes_009
4 	8 	0.10592373 		3.37268439		# lopes_006	lopes_010
4 	9 	0.06797009 		3.52491135		# lopes_006	lopes_011
4 	10 	0.06797009 		3.52491135		# lopes_006	lopes_012
4 	11 	0.04449687 		2.91032644		# lopes_006	lopes_013
4 	12 	0.06599904 		3.5		# lopes_006	lopes_014
4 	13 	0.04449687 		2.95803989		# lopes_006	lopes_015
4 	14 	0.06599904 		3.5		# lopes_006	lopes_016
4 	15 	0.04449687 		2.95803989		# lopes_006	lopes_020
4 	16 	0.10125807 		3.3288136		# lopes_006	mxene_001
4 	17 	0.10125807 		3.3288136		# lopes_006	mxene_002
4 	18 	0.10125807 		3.3288136		# lopes_006	mxene_003
4 	19 	0.03076441 		3.52649968		# lopes_006	mxene_004
4 	20 	0.0 		3.3288136		# lopes_006	mxene_005
5 	5 	0.06599904 		3.5		# lopes_007	lopes_007
5 	6 	0.06599904 		3.5		# lopes_007	lopes_008
5 	7 	0.04449687 		2.95803989		# lopes_007	lopes_009
5 	8 	0.10592373 		3.37268439		# lopes_007	lopes_010
5 	9 	0.06797009 		3.52491135		# lopes_007	lopes_011
5 	10 	0.06797009 		3.52491135		# lopes_007	lopes_012
5 	11 	0.04449687 		2.91032644		# lopes_007	lopes_013
5 	12 	0.06599904 		3.5		# lopes_007	lopes_014
5 	13 	0.04449687 		2.95803989		# lopes_007	lopes_015
5 	14 	0.06599904 		3.5		# lopes_007	lopes_016
5 	15 	0.04449687 		2.95803989		# lopes_007	lopes_020
5 	16 	0.10125807 		3.3288136		# lopes_007	mxene_001
5 	17 	0.10125807 		3.3288136		# lopes_007	mxene_002
5 	18 	0.10125807 		3.3288136		# lopes_007	mxene_003
5 	19 	0.03076441 		3.52649968		# lopes_007	mxene_004
5 	20 	0.0 		3.3288136		# lopes_007	mxene_005
6 	6 	0.06599904 		3.5		# lopes_008	lopes_008
6 	7 	0.04449687 		2.95803989		# lopes_008	lopes_009
6 	8 	0.10592373 		3.37268439		# lopes_008	lopes_010
6 	9 	0.06797009 		3.52491135		# lopes_008	lopes_011
6 	10 	0.06797009 		3.52491135		# lopes_008	lopes_012
6 	11 	0.04449687 		2.91032644		# lopes_008	lopes_013
6 	12 	0.06599904 		3.5		# lopes_008	lopes_014
6 	13 	0.04449687 		2.95803989		# lopes_008	lopes_015
6 	14 	0.06599904 		3.5		# lopes_008	lopes_016
6 	15 	0.04449687 		2.95803989		# lopes_008	lopes_020
6 	16 	0.10125807 		3.3288136		# lopes_008	mxene_001
6 	17 	0.10125807 		3.3288136		# lopes_008	mxene_002
6 	18 	0.10125807 		3.3288136		# lopes_008	mxene_003
6 	19 	0.03076441 		3.52649968		# lopes_008	mxene_004
6 	20 	0.0 		3.3288136		# lopes_008	mxene_005
7 	7 	0.03 		2.5		# lopes_009	lopes_009
7 	8 	0.07141428 		2.85043856		# lopes_009	lopes_010
7 	9 	0.04582576 		2.97909382		# lopes_009	lopes_011
7 	10 	0.04582576 		2.97909382		# lopes_009	lopes_012
7 	11 	0.03 		2.45967478		# lopes_009	lopes_013
7 	12 	0.04449687 		2.95803989		# lopes_009	lopes_014
7 	13 	0.03 		2.5		# lopes_009	lopes_015
7 	14 	0.04449687 		2.95803989		# lopes_009	lopes_016
7 	15 	0.03 		2.5		# lopes_009	lopes_020
7 	16 	0.06826867 		2.81336098		# lopes_009	mxene_001
7 	17 	0.06826867 		2.81336098		# lopes_009	mxene_002
7 	18 	0.06826867 		2.81336098		# lopes_009	mxene_003
7 	19 	0.02074151 		2.98043621		# lopes_009	mxene_004
7 	20 	0.0 		2.81336098		# lopes_009	mxene_005
8 	8 	0.17 		3.25		# lopes_010	lopes_010
8 	9 	0.10908712 		3.39668956		# lopes_010	lopes_011
8 	10 	0.10908712 		3.39668956		# lopes_010	lopes_012
8 	11 	0.07141428 		2.80446073		# lopes_010	lopes_013
8 	12 	0.10592373 		3.37268439		# lopes_010	lopes_014
8 	13 	0.07141428 		2.85043856		# lopes_010	lopes_015
8 	14 	0.10592373 		3.37268439		# lopes_010	lopes_016
8 	15 	0.07141428 		2.85043856		# lopes_010	lopes_020
8 	16 	0.16251195 		3.20772505		# lopes_010	mxene_001
8 	17 	0.16251195 		3.20772505		# lopes_010	mxene_002
8 	18 	0.16251195 		3.20772505		# lopes_010	mxene_003
8 	19 	0.04937467 		3.39822012		# lopes_010	mxene_004
8 	20 	0.0 		3.20772505		# lopes_010	mxene_005
9 	9 	0.07 		3.55		# lopes_011	lopes_011
9 	10 	0.07 		3.55		# lopes_011	lopes_012
9 	11 	0.04582576 		2.93104077		# lopes_011	lopes_013
9 	12 	0.06797009 		3.52491135		# lopes_011	lopes_014
9 	13 	0.04582576 		2.97909382		# lopes_011	lopes_015
9 	14 	0.06797009 		3.52491135		# lopes_011	lopes_016
9 	15 	0.04582576 		2.97909382		# lopes_011	lopes_020
9 	16 	0.10428212 		3.35250652		# lopes_011	mxene_001
9 	17 	0.10428212 		3.35250652		# lopes_011	mxene_002
9 	18 	0.10428212 		3.35250652		# lopes_011	mxene_003
9 	19 	0.03168318 		3.55159964		# lopes_011	mxene_004
9 	20 	0.0 		3.35250652		# lopes_011	mxene_005
10 	10 	0.07 		3.55		# lopes_012	lopes_012
10 	11 	0.04582576 		2.93104077		# lopes_012	lopes_013
10 	12 	0.06797009 		3.52491135		# lopes_012	lopes_014
10 	13 	0.04582576 		2.97909382		# lopes_012	lopes_015
10 	14 	0.06797009 		3.52491135		# lopes_012	lopes_016
10 	15 	0.04582576 		2.97909382		# lopes_012	lopes_020
10 	16 	0.10428212 		3.35250652		# lopes_012	mxene_001
10 	17 	0.10428212 		3.35250652		# lopes_012	mxene_002
10 	18 	0.10428212 		3.35250652		# lopes_012	mxene_003
10 	19 	0.03168318 		3.55159964		# lopes_012	mxene_004
10 	20 	0.0 		3.35250652		# lopes_012	mxene_005
11 	11 	0.03 		2.42		# lopes_013	lopes_013
11 	12 	0.04449687 		2.91032644		# lopes_013	lopes_014
11 	13 	0.03 		2.45967478		# lopes_013	lopes_015
11 	14 	0.04449687 		2.91032644		# lopes_013	lopes_016
11 	15 	0.03 		2.45967478		# lopes_013	lopes_020
11 	16 	0.06826867 		2.76798121		# lopes_013	mxene_001
11 	17 	0.06826867 		2.76798121		# lopes_013	mxene_002
11 	18 	0.06826867 		2.76798121		# lopes_013	mxene_003
11 	19 	0.02074151 		2.93236151		# lopes_013	mxene_004
11 	20 	0.0 		2.76798121		# lopes_013	mxene_005
12 	12 	0.06599904 		3.5		# lopes_014	lopes_014
12 	13 	0.04449687 		2.95803989		# lopes_014	lopes_015
12 	14 	0.06599904 		3.5		# lopes_014	lopes_016
12 	15 	0.04449687 		2.95803989		# lopes_014	lopes_020
12 	16 	0.10125807 		3.3288136		# lopes_014	mxene_001
12 	17 	0.10125807 		3.3288136		# lopes_014	mxene_002
12 	18 	0.10125807 		3.3288136		# lopes_014	mxene_003
12 	19 	0.03076441 		3.52649968		# lopes_014	mxene_004
12 	20 	0.0 		3.3288136		# lopes_014	mxene_005
13 	13 	0.03 		2.5		# lopes_015	lopes_015
13 	14 	0.04449687 		2.95803989		# lopes_015	lopes_016
13 	15 	0.03 		2.5		# lopes_015	lopes_020
13 	16 	0.06826867 		2.81336098		# lopes_015	mxene_001
13 	17 	0.06826867 		2.81336098		# lopes_015	mxene_002
13 	18 	0.06826867 		2.81336098		# lopes_015	mxene_003
13 	19 	0.02074151 		2.98043621		# lopes_015	mxene_004
13 	20 	0.0 		2.81336098		# lopes_015	mxene_005
14 	14 	0.06599904 		3.5		# lopes_016	lopes_016
14 	15 	0.04449687 		2.95803989		# lopes_016	lopes_020
14 	16 	0.10125807 		3.3288136		# lopes_016	mxene_001
14 	17 	0.10125807 		3.3288136		# lopes_016	mxene_002
14 	18 	0.10125807 		3.3288136		# lopes_016	mxene_003
14 	19 	0.03076441 		3.52649968		# lopes_016	mxene_004
14 	20 	0.0 		3.3288136		# lopes_016	mxene_005
15 	15 	0.03 		2.5		# lopes_020	lopes_020
15 	16 	0.06826867 		2.81336098		# lopes_020	mxene_001
15 	17 	0.06826867 		2.81336098		# lopes_020	mxene_002
15 	18 	0.06826867 		2.81336098		# lopes_020	mxene_003
15 	19 	0.02074151 		2.98043621		# lopes_020	mxene_004
15 	20 	0.0 		2.81336098		# lopes_020	mxene_005
16 	16 	0.15535373 		3.166		# mxene_001	mxene_001
16 	17 	0.15535373 		3.166		# mxene_001	mxene_002
16 	18 	0.15535373 		2.54		# mxene_001	mxene_003
16 	19 	0.15535373 		2.65		# mxene_001	mxene_004
16 	20 	0.0 		3.166		# mxene_001	mxene_005
17 	17 	0.15535373 		3.166		# mxene_002	mxene_002
17 	18 	0.15535373 		2.54		# mxene_002	mxene_003
17 	19 	0.15535373 		2.65		# mxene_002	mxene_004
17 	20 	0.0 		3.166		# mxene_002	mxene_005
18 	18 	0.15535373 		3.166		# mxene_003	mxene_003
18 	19 	0.04719985 		3.49265		# mxene_003	mxene_004
18 	20 	0.0 		3.166		# mxene_003	mxene_005
19 	19 	0.01434034 		3.81930878		# mxene_004	mxene_004
19 	20 	0.15535373 		1.5		# mxene_004	mxene_005
20 	20 	0.0 		3.166		# mxene_005	mxene_005

Bond Coeffs # harmonic
#	k(kcal/mol/angstrom^2)		req(angstrom)
1	339.986		1.09		# lopes_008	lopes_009
2	267.925		1.529		# lopes_004	lopes_006
3	267.925		1.529		# lopes_007	lopes_008
4	267.925		1.529		# lopes_006	lopes_007
5	340.0		1.09		# lopes_014	lopes_015
6	133.963		1.529		# lopes_014	lopes_016
7	213.552		1.378		# lopes_010	lopes_012
8	339.986		1.09		# lopes_006	lopes_009
9	339.986		1.09		# lopes_007	lopes_009
10	336.998		1.08		# lopes_003	lopes_004
11	400.0		2.115		# mxene_001	mxene_004
12	340.0		1.09		# lopes_016	lopes_020
13	400.0		0.975		# mxene_004	mxene_005
14	238.528		1.35		# lopes_010	lopes_011
15	168.499		1.466		# lopes_010	lopes_014
16	340.0		1.08		# lopes_012	lopes_013
17	267.925		1.529		# lopes_007	lopes_007
18	260.038		1.341		# lopes_012	lopes_012
19	339.986		1.09		# lopes_004	lopes_005
20	340.0		1.08		# lopes_011	lopes_013

Angle Coeffs # harmonic
#	reduced_k		theteq(deg)
1	32.995		107.80200	# lopes_005	lopes_004	lopes_005
2	16.503		107.80000	# lopes_015	lopes_014	lopes_015
3	17.483		125.10000	# lopes_010	lopes_011	lopes_013
4	33.772		108.00000	# lopes_011	lopes_010	lopes_012
5	16.503		107.80000	# lopes_020	lopes_016	lopes_020
6	50.0		112.70000	# lopes_010	lopes_014	lopes_016
7	37.5		110.70100	# lopes_007	lopes_006	lopes_009
8	34.967		109.80000	# lopes_010	lopes_011	lopes_010
9	50.0		112.70000	# lopes_006	lopes_007	lopes_007
10	37.5		110.70100	# lopes_005	lopes_004	lopes_006
11	18.714		110.70000	# lopes_007	lopes_007	lopes_009
12	50.0		109.50000	# lopes_004	lopes_003	lopes_004
13	100.0		109.47000	# mxene_001	mxene_004	mxene_005
14	37.5		110.70000	# lopes_003	lopes_004	lopes_005
15	18.714		110.70000	# lopes_015	lopes_014	lopes_016
16	33.772		126.40000	# lopes_011	lopes_010	lopes_014
17	32.995		107.80200	# lopes_009	lopes_007	lopes_009
18	34.967		107.10000	# lopes_010	lopes_012	lopes_012
19	58.353		112.70000	# lopes_003	lopes_004	lopes_006
20	32.995		107.80200	# lopes_009	lopes_008	lopes_009
21	50.0		112.70000	# lopes_007	lopes_007	lopes_007
22	37.5		110.70100	# lopes_008	lopes_007	lopes_009
23	17.483		130.90000	# lopes_012	lopes_012	lopes_013
24	17.483		122.00000	# lopes_010	lopes_012	lopes_013
25	37.5		110.70100	# lopes_006	lopes_007	lopes_009
26	37.5		110.70100	# lopes_004	lopes_006	lopes_009
27	58.353		112.70100	# lopes_007	lopes_008	lopes_009
28	18.714		110.70000	# lopes_010	lopes_014	lopes_015
29	58.353		112.70100	# lopes_004	lopes_006	lopes_007
30	18.714		110.70000	# lopes_014	lopes_016	lopes_020
31	32.995		107.80200	# lopes_009	lopes_006	lopes_009
32	33.772		125.60000	# lopes_012	lopes_010	lopes_014
33	50.0		112.70000	# lopes_007	lopes_007	lopes_008

Dihedral Coeffs # opls
#	f1(kcal/mol)	f2(kcal/mol)	f3(kcal/mol)	f4(kcal/mol)
1	1.74100	-0.15800		0.27900		-0.00000	# lopes_007	lopes_007	lopes_006	lopes_004
2	-0.00000	3.00000		-0.00000		-0.00000	# lopes_011	lopes_010	lopes_012	lopes_012
3	-0.00000	4.65100		-0.00000		-0.00000	# lopes_010	lopes_011	lopes_010	lopes_012
4	1.74100	-0.15800		0.27900		-0.00000	# lopes_007	lopes_007	lopes_007	lopes_007
5	0.00000	0.00000		0.31800		-0.00000	# lopes_009	lopes_007	lopes_007	lopes_009
6	1.74100	-0.15800		0.27900		-0.00000	# lopes_008	lopes_007	lopes_007	lopes_007
7	-0.00000	0.00000		0.36600		-0.00000	# lopes_007	lopes_007	lopes_008	lopes_009
8	-0.00000	0.00000		-0.00000		-0.00000	# lopes_011	lopes_010	lopes_014	lopes_015
9	0.00000	0.00000		0.31800		-0.00000	# lopes_009	lopes_007	lopes_006	lopes_009
10	-0.00000	0.00000		0.36600		-0.00000	# lopes_007	lopes_007	lopes_007	lopes_009
11	-0.00000	4.65100		-0.00000		-0.00000	# lopes_012	lopes_010	lopes_011	lopes_013
12	0.00000	0.00000		0.31800		-0.00000	# lopes_009	lopes_006	lopes_004	lopes_005
13	0.00000	0.00000		0.31800		-0.00000	# lopes_009	lopes_008	lopes_007	lopes_009
14	-0.00000	0.00000		-0.00000		-0.00000	# lopes_010	lopes_014	lopes_016	lopes_020
15	-0.00000	0.00000		0.36600		-0.00000	# lopes_008	lopes_007	lopes_007	lopes_009
16	-1.26000	0.00000		-0.00000		-0.00000	# lopes_011	lopes_010	lopes_014	lopes_016
17	-0.00000	3.00000		-0.00000		-0.00000	# lopes_014	lopes_010	lopes_012	lopes_013
18	0.00000	0.00000		0.31800		-0.00000	# lopes_015	lopes_014	lopes_016	lopes_020
19	-0.00000	4.65100		-0.00000		-0.00000	# lopes_014	lopes_010	lopes_011	lopes_013
20	-0.00000	0.00000		0.36600		-0.00000	# lopes_007	lopes_006	lopes_004	lopes_005
21	-0.00000	3.00000		-0.00000		-0.00000	# lopes_011	lopes_010	lopes_012	lopes_013
22	-1.71000	1.45900		0.19000		-0.00000	# lopes_012	lopes_010	lopes_014	lopes_016
23	-0.00000	10.75000		-0.00000		-0.00000	# lopes_010	lopes_012	lopes_012	lopes_010
24	-0.00000	3.00000		-0.00000		-0.00000	# lopes_012	lopes_012	lopes_010	lopes_014
25	1.74100	-0.15800		0.27900		-0.00000	# lopes_007	lopes_007	lopes_007	lopes_006
26	-0.00000	0.00000		0.36600		-0.00000	# lopes_007	lopes_007	lopes_006	lopes_009
27	0.00000	0.00000		0.12400		-0.00000	# lopes_012	lopes_010	lopes_014	lopes_015
28	-0.00000	0.00000		0.36600		-0.00000	# lopes_006	lopes_007	lopes_007	lopes_009
29	-0.00000	0.00000		0.36600		-0.00000	# lopes_004	lopes_006	lopes_007	lopes_009
30	-0.00000	10.75000		-0.00000		-0.00000	# lopes_010	lopes_012	lopes_012	lopes_013
31	-0.00000	10.75000		-0.00000		-0.00000	# lopes_013	lopes_012	lopes_012	lopes_013
32	-0.00000	4.65100		-0.00000		-0.00000	# lopes_010	lopes_011	lopes_010	lopes_014

Improper Coeffs # cvff
#k, d, n
1	1.09900	1	2	# lopes_011	lopes_010	lopes_010	lopes_013
2	1.09900	1	2	# lopes_012	lopes_013	lopes_010	lopes_012
3	1.09900	1	2	# lopes_011	lopes_013	lopes_010	lopes_010
4	1.09900	1	2	# lopes_012	lopes_010	lopes_012	lopes_013
5	1.09900	1	2	# lopes_012	lopes_013	lopes_012	lopes_010
6	1.00000	1	2	# lopes_010	lopes_012	lopes_011	lopes_014
7	1.00000	1	2	# lopes_010	lopes_014	lopes_011	lopes_012
8	1.00000	1	2	# lopes_010	lopes_014	lopes_012	lopes_011

Atoms

1	0	17	1.043500	64.256440	54.672000	4.886550
2	0	17	1.043500	62.635279	1.897600	4.886550
3	0	17	1.043500	61.014118	4.675200	4.886550
4	0	17	1.043500	59.392957	7.452800	4.886550
5	0	17	1.043500	57.771796	10.230400	4.886550
6	0	17	1.043500	56.150635	13.008000	4.886550
7	0	17	1.043500	54.529474	15.785600	4.886550
8	0	17	1.043500	52.908313	18.563200	4.886550
9	0	17	1.043500	51.287152	21.340800	4.886550
10	0	17	1.043500	49.665991	24.118400	4.886550
11	0	17	1.043500	48.044830	26.896000	4.886550
12	0	17	1.043500	46.423669	29.673600	4.886550
13	0	17	1.043500	44.802508	32.451200	4.886550
14	0	17	1.043500	43.181347	35.228800	4.886550
15	0	17	1.043500	41.560186	38.006400	4.886550
16	0	17	1.043500	39.939025	40.784000	4.886550
17	0	17	1.043500	38.317864	43.561600	4.886550
18	0	17	1.043500	36.696703	46.339200	4.886550
19	0	17	1.043500	35.075542	49.116800	4.886550
20	0	17	1.043500	33.454381	51.894400	4.886550
21	0	17	1.043500	2.652322	54.672000	4.886550
22	0	17	1.043500	1.031161	1.897600	4.886550
23	0	17	1.043500	64.256440	4.675200	4.886550
24	0	17	1.043500	62.635279	7.452800	4.886550
25	0	17	1.043500	61.014118	10.230400	4.886550
26	0	17	1.043500	59.392957	13.008000	4.886550
27	0	17	1.043500	57.771796	15.785600	4.886550
28	0	17	1.043500	56.150635	18.563200	4.886550
29	0	17	1.043500	54.529474	21.340800	4.886550
30	0	17	1.043500	52.908313	24.118400	4.886550
31	0	17	1.043500	51.287152	26.896000	4.886550
32	0	17	1.043500	49.665991	29.673600	4.886550
33	0	17	1.043500	48.044830	32.451200	4.886550
34	0	17	1.043500	46.423669	35.228800	4.886550
35	0	17	1.043500	44.802508	38.006400	4.886550
36	0	17	1.043500	43.181347	40.784000	4.886550
37	0	17	1.043500	41.560186	43.561600	4.886550
38	0	17	1.043500	39.939025	46.339200	4.886550
39	0	17	1.043500	38.317864	49.116800	4.886550
40	0	17	1.043500	36.696703	51.894400	4.886550
41	0	17	1.043500	5.894644	54.672000	4.886550
42	0	17	1.043500	4.273483	1.897600	4.886550
43	0	17	1.043500	2.652322	4.675200	4.886550
44	0	17	1.043500	1.031161	7.452800	4.886550
45	0	17	1.043500	64.256440	10.230400	4.886550
46	0	17	1.043500	62.635279	13.008000	4.886550
47	0	17	1.043500	61.014118	15.785600	4.886550
48	0	17	1.043500	59.392957	18.563200	4.886550
49	0	17	1.043500	57.771796	21.340800	4.886550
50	0	17	1.043500	56.150635	24.118400	4.886550
51	0	17	1.043500	54.529474	26.896000	4.886550
52	0	17	1.043500	52.908313	29.673600	4.886550
53	0	17	1.043500	51.287152	32.451200	4.886550
54	0	17	1.043500	49.665991	35.228800	4.886550
55	0	17	1.043500	48.044830	38.006400	4.886550
56	0	17	1.043500	46.423669	40.784000	4.886550
57	0	17	1.043500	44.802508	43.561600	4.886550
58	0	17	1.043500	43.181347	46.339200	4.886550
59	0	17	1.043500	41.560186	49.116800	4.886550
60	0	17	1.043500	39.939025	51.894400	4.886550
61	0	17	1.043500	9.136966	54.672000	4.886550
62	0	17	1.043500	7.515805	1.897600	4.886550
63	0	17	1.043500	5.894644	4.675200	4.886550
64	0	17	1.043500	4.273483	7.452800	4.886550
65	0	17	1.043500	2.652322	10.230400	4.886550
66	0	17	1.043500	1.031161	13.008000	4.886550
67	0	17	1.043500	64.256440	15.785600	4.886550
68	0	17	1.043500	62.635279	18.563200	4.886550
69	0	17	1.043500	61.014118	21.340800	4.886550
70	0	17	1.043500	59.392957	24.118400	4.886550
71	0	17	1.043500	57.771796	26.896000	4.886550
72	0	17	1.043500	56.150635	29.673600	4.886550
73	0	17	1.043500	54.529474	32.451200	4.886550
74	0	17	1.043500	52.908313	35.228800	4.886550
75	0	17	1.043500	51.287152	38.006400	4.886550
76	0	17	1.043500	49.665991	40.784000	4.886550
77	0	17	1.043500	48.044830	43.561600	4.886550
78	0	17	1.043500	46.423669	46.339200	4.886550
79	0	17	1.043500	44.802508	49.116800	4.886550
80	0	17	1.043500	43.181347	51.894400	4.886550
81	0	17	1.043500	12.379288	54.672000	4.886550
82	0	17	1.043500	10.758127	1.897600	4.886550
83	0	17	1.043500	9.136966	4.675200	4.886550
84	0	17	1.043500	7.515805	7.452800	4.886550
85	0	17	1.043500	5.894644	10.230400	4.886550
86	0	17	1.043500	4.273483	13.008000	4.886550
87	0	17	1.043500	2.652322	15.785600	4.886550
88	0	17	1.043500	1.031161	18.563200	4.886550
89	0	17	1.043500	64.256440	21.340800	4.886550
90	0	17	1.043500	62.635279	24.118400	4.886550
91	0	17	1.043500	61.014118	26.896000	4.886550
92	0	17	1.043500	59.392957	29.673600	4.886550
93	0	17	1.043500	57.771796	32.451200	4.886550
94	0	17	1.043500	56.150635	35.228800	4.886550
95	0	17	1.043500	54.529474	38.006400	4.886550
96	0	17	1.043500	52.908313	40.784000	4.886550
97	0	17	1.043500	51.287152	43.561600	4.886550
98	0	17	1.043500	49.665991	46.339200	4.886550
99	0	17	1.043500	48.044830	49.116800	4.886550
100	0	17	1.043500	46.423669	51.894400	4.886550
101	0	17	1.043500	15.621610	54.672000	4.886550
102	0	17	1.043500	14.000449	1.897600	4.886550
103	0	17	1.043500	12.379288	4.675200	4.886550
104	0	17	1.043500	10.758127	7.452800	4.886550
105	0	17	1.043500	9.136966	10.230400	4.886550
106	0	17	1.043500	7.515805	13.008000	4.886550
107	0	17	1.043500	5.894644	15.785600	4.886550
108	0	17	1.043500	4.273483	18.563200	4.886550
109	0	17	1.043500	2.652322	21.340800	4.886550
110	0	17	1.043500	1.031161	24.118400	4.886550
111	0	17	1.043500	64.256440	26.896000	4.886550
112	0	17	1.043500	62.635279	29.673600	4.886550
113	0	17	1.043500	61.014118	32.451200	4.886550
114	0	17	1.043500	59.392957	35.228800	4.886550
115	0	17	1.043500	57.771796	38.006400	4.886550
116	0	17	1.043500	56.150635	40.784000	4.886550
117	0	17	1.043500	54.529474	43.561600	4.886550
118	0	17	1.043500	52.908313	46.339200	4.886550
119	0	17	1.043500	51.287152	49.116800	4.886550
120	0	17	1.043500	49.665991	51.894400	4.886550
121	0	17	1.043500	18.863932	54.672000	4.886550
122	0	17	1.043500	17.242771	1.897600	4.886550
123	0	17	1.043500	15.621610	4.675200	4.886550
124	0	17	1.043500	14.000449	7.452800	4.886550
125	0	17	1.043500	12.379288	10.230400	4.886550
126	0	17	1.043500	10.758127	13.008000	4.886550
127	0	17	1.043500	9.136966	15.785600	4.886550
128	0	17	1.043500	7.515805	18.563200	4.886550
129	0	17	1.043500	5.894644	21.340800	4.886550
130	0	17	1.043500	4.273483	24.118400	4.886550
131	0	17	1.043500	2.652322	26.896000	4.886550
132	0	17	1.043500	1.031161	29.673600	4.886550
133	0	17	1.043500	64.256440	32.451200	4.886550
134	0	17	1.043500	62.635279	35.228800	4.886550
135	0	17	1.043500	61.014118	38.006400	4.886550
136	0	17	1.043500	59.392957	40.784000	4.886550
137	0	17	1.043500	57.771796	43.561600	4.886550
138	0	17	1.043500	56.150635	46.339200	4.886550
139	0	17	1.043500	54.529474	49.116800	4.886550
140	0	17	1.043500	52.908313	51.894400	4.886550
141	0	17	1.043500	22.106254	54.672000	4.886550
142	0	17	1.043500	20.485093	1.897600	4.886550
143	0	17	1.043500	18.863932	4.675200	4.886550
144	0	17	1.043500	17.242771	7.452800	4.886550
145	0	17	1.043500	15.621610	10.230400	4.886550
146	0	17	1.043500	14.000449	13.008000	4.886550
147	0	17	1.043500	12.379288	15.785600	4.886550
148	0	17	1.043500	10.758127	18.563200	4.886550
149	0	17	1.043500	9.136966	21.340800	4.886550
150	0	17	1.043500	7.515805	24.118400	4.886550
151	0	17	1.043500	5.894644	26.896000	4.886550
152	0	17	1.043500	4.273483	29.673600	4.886550
153	0	17	1.043500	2.652322	32.451200	4.886550
154	0	17	1.043500	1.031161	35.228800	4.886550
155	0	17	1.043500	64.256440	38.006400	4.886550
156	0	17	1.043500	62.635279	40.784000	4.886550
157	0	17	1.043500	61.014118	43.561600	4.886550
158	0	17	1.043500	59.392957	46.339200	4.886550
159	0	17	1.043500	57.771796	49.116800	4.886550
160	0	17	1.043500	56.150635	51.894400	4.886550
161	0	17	1.043500	25.348576	54.672000	4.886550
162	0	17	1.043500	23.727415	1.897600	4.886550
163	0	17	1.043500	22.106254	4.675200	4.886550
164	0	17	1.043500	20.485093	7.452800	4.886550
165	0	17	1.043500	18.863932	10.230400	4.886550
166	0	17	1.043500	17.242771	13.008000	4.886550
167	0	17	1.043500	15.621610	15.785600	4.886550
168	0	17	1.043500	14.000449	18.563200	4.886550
169	0	17	1.043500	12.379288	21.340800	4.886550
170	0	17	1.043500	10.758127	24.118400	4.886550
171	0	17	1.043500	9.136966	26.896000	4.886550
172	0	17	1.043500	7.515805	29.673600	4.886550
173	0	17	1.043500	5.894644	32.451200	4.886550
174	0	17	1.043500	4.273483	35.228800	4.886550
175	0	17	1.043500	2.652322	38.006400	4.886550
176	0	17	1.043500	1.031161	40.784000	4.886550
177	0	17	1.043500	64.256440	43.561600	4.886550
178	0	17	1.043500	62.635279	46.339200	4.886550
179	0	17	1.043500	61.014118	49.116800	4.886550
180	0	17	1.043500	59.392957	51.894400	4.886550
181	0	17	1.043500	28.590898	54.672000	4.886550
182	0	17	1.043500	26.969737	1.897600	4.886550
183	0	17	1.043500	25.348576	4.675200	4.886550
184	0	17	1.043500	23.727415	7.452800	4.886550
185	0	17	1.043500	22.106254	10.230400	4.886550
186	0	17	1.043500	20.485093	13.008000	4.886550
187	0	17	1.043500	18.863932	15.785600	4.886550
188	0	17	1.043500	17.242771	18.563200	4.886550
189	0	17	1.043500	15.621610	21.340800	4.886550
190	0	17	1.043500	14.000449	24.118400	4.886550
191	0	17	1.043500	12.379288	26.896000	4.886550
192	0	17	1.043500	10.758127	29.673600	4.886550
193	0	17	1.043500	9.136966	32.451200	4.886550
194	0	17	1.043500	7.515805	35.228800	4.886550
195	0	17	1.043500	5.894644	38.006400	4.886550
196	0	17	1.043500	4.273483	40.784000	4.886550
197	0	17	1.043500	2.652322	43.561600	4.886550
198	0	17	1.043500	1.031161	46.339200	4.886550
199	0	17	1.043500	64.256440	49.116800	4.886550
200	0	17	1.043500	62.635279	51.894400	4.886550
201	0	17	1.043500	31.833220	54.672000	4.886550
202	0	17	1.043500	30.212059	1.897600	4.886550
203	0	17	1.043500	28.590898	4.675200	4.886550
204	0	17	1.043500	26.969737	7.452800	4.886550
205	0	17	1.043500	25.348576	10.230400	4.886550
206	0	17	1.043500	23.727415	13.008000	4.886550
207	0	17	1.043500	22.106254	15.785600	4.886550
208	0	17	1.043500	20.485093	18.563200	4.886550
209	0	17	1.043500	18.863932	21.340800	4.886550
210	0	17	1.043500	17.242771	24.118400	4.886550
211	0	17	1.043500	15.621610	26.896000	4.886550
212	0	17	1.043500	14.000449	29.673600	4.886550
213	0	17	1.043500	12.379288	32.451200	4.886550
214	0	17	1.043500	10.758127	35.228800	4.886550
215	0	17	1.043500	9.136966	38.006400	4.886550
216	0	17	1.043500	7.515805	40.784000	4.886550
217	0	17	1.043500	5.894644	43.561600	4.886550
218	0	17	1.043500	4.273483	46.339200	4.886550
219	0	17	1.043500	2.652322	49.116800	4.886550
220	0	17	1.043500	1.031161	51.894400	4.886550
221	0	17	1.043500	35.075542	54.672000	4.886550
222	0	17	1.043500	33.454381	1.897600	4.886550
223	0	17	1.043500	31.833220	4.675200	4.886550
224	0	17	1.043500	30.212059	7.452800	4.886550
225	0	17	1.043500	28.590898	10.230400	4.886550
226	0	17	1.043500	26.969737	13.008000	4.886550
227	0	17	1.043500	25.348576	15.785600	4.886550
228	0	17	1.043500	23.727415	18.563200	4.886550
229	0	17	1.043500	22.106254	21.340800	4.886550
230	0	17	1.043500	20.485093	24.118400	4.886550
231	0	17	1.043500	18.863932	26.896000	4.886550
232	0	17	1.043500	17.242771	29.673600	4.886550
233	0	17	1.043500	15.621610	32.451200	4.886550
234	0	17	1.043500	14.000449	35.228800	4.886550
235	0	17	1.043500	12.379288	38.006400	4.886550
236	0	17	1.043500	10.758127	40.784000	4.886550
237	0	17	1.043500	9.136966	43.561600	4.886550
238	0	17	1.043500	7.515805	46.339200	4.886550
239	0	17	1.043500	5.894644	49.116800	4.886550
240	0	17	1.043500	4.273483	51.894400	4.886550
241	0	17	1.043500	38.317864	54.672000	4.886550
242	0	17	1.043500	36.696703	1.897600	4.886550
243	0	17	1.043500	35.075542	4.675200	4.886550
244	0	17	1.043500	33.454381	7.452800	4.886550
245	0	17	1.043500	31.833220	10.230400	4.886550
246	0	17	1.043500	30.212059	13.008000	4.886550
247	0	17	1.043500	28.590898	15.785600	4.886550
248	0	17	1.043500	26.969737	18.563200	4.886550
249	0	17	1.043500	25.348576	21.340800	4.886550
250	0	17	1.043500	23.727415	24.118400	4.886550
251	0	17	1.043500	22.106254	26.896000	4.886550
252	0	17	1.043500	20.485093	29.673600	4.886550
253	0	17	1.043500	18.863932	32.451200	4.886550
254	0	17	1.043500	17.242771	35.228800	4.886550
255	0	17	1.043500	15.621610	38.006400	4.886550
256	0	17	1.043500	14.000449	40.784000	4.886550
257	0	17	1.043500	12.379288	43.561600	4.886550
258	0	17	1.043500	10.758127	46.339200	4.886550
259	0	17	1.043500	9.136966	49.116800	4.886550
260	0	17	1.043500	7.515805	51.894400	4.886550
261	0	17	1.043500	41.560186	54.672000	4.886550
262	0	17	1.043500	39.939025	1.897600	4.886550
263	0	17	1.043500	38.317864	4.675200	4.886550
264	0	17	1.043500	36.696703	7.452800	4.886550
265	0	17	1.043500	35.075542	10.230400	4.886550
266	0	17	1.043500	33.454381	13.008000	4.886550
267	0	17	1.043500	31.833220	15.785600	4.886550
268	0	17	1.043500	30.212059	18.563200	4.886550
269	0	17	1.043500	28.590898	21.340800	4.886550
270	0	17	1.043500	26.969737	24.118400	4.886550
271	0	17	1.043500	25.348576	26.896000	4.886550
272	0	17	1.043500	23.727415	29.673600	4.886550
273	0	17	1.043500	22.106254	32.451200	4.886550