data.mxene - created by mBuild; units = real

12160 atoms
11280 bonds
14400 angles
10560 dihedrals
0 impropers

12 atom types
11 bond types
19 angle types
15 dihedral types

0.000000 64.846440 xlo xhi
0.000000 55.552000 ylo yhi
0.000000 53.546200 zlo zhi

Masses

6	12.010780	# lopes_008
5	12.010780	# lopes_007
4	12.010780	# lopes_006
2	12.010780	# lopes_004
1	14.006720	# lopes_003
7	1.007947	# lopes_009
3	1.007947	# lopes_005
9	47.867100	# mxene_002
10	12.010780	# mxene_003
8	47.867100	# mxene_001
11	15.999430	# mxene_004
12	1.007947	# mxene_005

Pair Coeffs # lj 
#	epsilon (kcal/mol)		sigma (Angstrom)
6	0.06600		3.50000		# lopes_008
5	0.06600		3.50000		# lopes_007
4	0.06600		3.50000		# lopes_006
2	0.06600		3.50000		# lopes_004
1	0.17000		3.25000		# lopes_003
7	0.03000		2.50000		# lopes_009
3	0.03000		2.50000		# lopes_005
9	0.15535		3.16600		# mxene_002
10	0.15535		3.16600		# mxene_003
8	0.15535		3.16600		# mxene_001
11	0.01434		3.55320		# mxene_004
12	0.00000		3.16600		# mxene_005

Bond Coeffs # harmonic
#	k(kcal/mol/angstrom^2)		req(angstrom)
1	339.986		1.09		# lopes_008	lopes_009
2	339.986		1.09		# lopes_007	lopes_009
3	267.925		1.529		# lopes_007	lopes_008
4	336.998		1.08		# lopes_003	lopes_004
5	339.986		1.09		# lopes_006	lopes_009
6	400.0		2.115		# mxene_001	mxene_004
7	267.925		1.529		# lopes_007	lopes_007
8	339.986		1.09		# lopes_004	lopes_005
9	267.925		1.529		# lopes_004	lopes_006
10	400.0		0.975		# mxene_004	mxene_005
11	267.925		1.529		# lopes_006	lopes_007

Angle Coeffs # harmonic
#	reduced_k		theteq(deg)
1	58.353		112.70100	# lopes_007	lopes_008	lopes_009
2	32.995		107.80200	# lopes_005	lopes_004	lopes_005
3	18.714		110.70000	# lopes_007	lopes_007	lopes_009
4	100.0		109.47000	# mxene_001	mxene_004	mxene_005
5	50.0		109.50000	# lopes_004	lopes_003	lopes_004
6	37.5		110.70100	# lopes_006	lopes_007	lopes_009
7	32.995		107.80200	# lopes_009	lopes_008	lopes_009
8	32.995		107.80200	# lopes_009	lopes_006	lopes_009
9	58.353		112.70100	# lopes_004	lopes_006	lopes_007
10	37.5		110.70100	# lopes_005	lopes_004	lopes_006
11	58.353		112.70000	# lopes_003	lopes_004	lopes_006
12	50.0		112.70000	# lopes_006	lopes_007	lopes_007
13	37.5		110.70000	# lopes_003	lopes_004	lopes_005
14	32.995		107.80200	# lopes_009	lopes_007	lopes_009
15	37.5		110.70100	# lopes_007	lopes_006	lopes_009
16	50.0		112.70000	# lopes_007	lopes_007	lopes_008
17	37.5		110.70100	# lopes_008	lopes_007	lopes_009
18	50.0		112.70000	# lopes_007	lopes_007	lopes_007
19	37.5		110.70100	# lopes_004	lopes_006	lopes_009

Dihedral Coeffs # opls
#	f1(kcal/mol)	f2(kcal/mol)	f3(kcal/mol)	f4(kcal/mol)
1	-0.00000	0.00000		0.36600		-0.00000	# lopes_008	lopes_007	lopes_007	lopes_009
2	0.00000	0.00000		0.31800		-0.00000	# lopes_009	lopes_007	lopes_007	lopes_009
3	1.74100	-0.15800		0.27900		-0.00000	# lopes_007	lopes_007	lopes_007	lopes_006
4	0.00000	0.00000		0.31800		-0.00000	# lopes_009	lopes_008	lopes_007	lopes_009
5	-0.00000	0.00000		0.36600		-0.00000	# lopes_006	lopes_007	lopes_007	lopes_009
6	1.74100	-0.15800		0.27900		-0.00000	# lopes_008	lopes_007	lopes_007	lopes_007
7	0.00000	0.00000		0.31800		-0.00000	# lopes_009	lopes_006	lopes_004	lopes_005
8	1.74100	-0.15800		0.27900		-0.00000	# lopes_007	lopes_007	lopes_006	lopes_004
9	1.74100	-0.15800		0.27900		-0.00000	# lopes_007	lopes_007	lopes_007	lopes_007
10	-0.00000	0.00000		0.36600		-0.00000	# lopes_007	lopes_007	lopes_008	lopes_009
11	-0.00000	0.00000		0.36600		-0.00000	# lopes_007	lopes_007	lopes_006	lopes_009
12	0.00000	0.00000		0.31800		-0.00000	# lopes_009	lopes_007	lopes_006	lopes_009
13	-0.00000	0.00000		0.36600		-0.00000	# lopes_007	lopes_007	lopes_007	lopes_009
14	-0.00000	0.00000		0.36600		-0.00000	# lopes_007	lopes_006	lopes_004	lopes_005
15	-0.00000	0.00000		0.36600		-0.00000	# lopes_004	lopes_006	lopes_007	lopes_009

Atoms

1	0	6	-0.180000	38.567892	23.546477	23.782566
2	0	5	-0.120000	40.085180	23.556495	23.781596
3	0	5	-0.120000	40.613415	24.978781	23.643805
4	0	5	-0.120000	42.135468	24.990069	23.642711
5	0	5	-0.120000	42.650926	26.414626	23.504700
6	0	5	-0.120000	44.170447	26.423621	23.503828
7	0	5	-0.120000	44.680878	27.847357	23.365896
8	0	5	-0.120000	46.198601	27.852415	23.365405
9	0	5	-0.120000	46.706239	29.275731	23.227515
10	0	5	-0.120000	48.222414	29.275192	23.227566
11	0	5	-0.120000	48.734531	30.695585	23.089959
12	0	5	-0.120000	50.250885	30.678753	23.091589
13	0	5	-0.120000	50.774599	32.091747	22.954698
14	0	5	-0.120000	52.294634	32.075072	22.956313
15	0	4	0.010000	52.784740	33.502943	22.817981
16	0	2	-0.170000	54.304453	33.560678	22.812387
17	0	1	0.120000	54.817958	35.000904	22.672858
18	0	2	-0.170000	54.360704	35.622537	21.357179
19	0	2	-0.170000	54.360706	35.863531	23.844744
20	0	2	-0.170000	56.345212	34.955106	22.677294
21	0	7	0.060000	38.196151	22.522872	23.881734
22	0	7	0.060000	38.176100	23.966227	22.850653
23	0	7	0.060000	38.176100	24.137311	24.616574
24	0	7	0.060000	40.455019	22.939661	22.954454
25	0	7	0.060000	40.455019	23.109909	24.711761
26	0	7	0.060000	40.241670	25.596152	24.470605
27	0	7	0.060000	40.241669	25.425961	22.713872
28	0	7	0.060000	42.513652	24.378210	22.814977
29	0	7	0.060000	42.513653	24.548479	24.572501
30	0	7	0.060000	42.277147	27.029866	24.331960
31	0	7	0.060000	42.277146	26.859626	22.574724
32	0	7	0.060000	44.548084	25.811599	22.676124
33	0	7	0.060000	44.548085	25.981864	24.433620
34	0	7	0.060000	44.306875	28.461727	24.193392
35	0	7	0.060000	44.306874	28.291457	22.435857
36	0	7	0.060000	46.575560	27.240044	22.537801
37	0	7	0.060000	46.575561	27.410297	24.295168
38	0	7	0.060000	46.332705	29.889733	24.055177
39	0	7	0.060000	46.332704	29.719438	22.297382
40	0	7	0.060000	48.597536	28.661931	22.400035
41	0	7	0.060000	48.597537	28.832187	24.157428
42	0	7	0.060000	48.363547	31.311780	23.917217
43	0	7	0.060000	48.363546	31.141522	22.159802
44	0	7	0.060000	50.620116	30.063325	22.263631
45	0	7	0.060000	50.620117	30.233703	24.022284
46	0	7	0.060000	50.403647	32.710326	23.780813
47	0	7	0.060000	50.403646	32.540244	22.025206
48	0	7	0.060000	52.666502	31.463762	22.126676
49	0	7	0.060000	52.666503	31.634385	23.887866
50	0	7	0.060000	52.374067	34.083929	23.648334
51	0	7	0.060000	52.374066	33.913732	21.891545
52	0	3	0.130000	54.713121	32.985368	21.973424
53	0	3	0.130000	54.713122	33.157112	23.746183
54	0	3	0.130000	53.271959	35.724094	21.365557
55	0	3	0.130000	54.681925	34.972820	20.538616
56	0	3	0.130000	54.813118	36.613346	21.267392
57	0	3	0.130000	53.271961	35.961591	23.817028
58	0	3	0.130000	54.813119	36.853149	23.742666
59	0	3	0.130000	54.681928	35.383027	24.772801
60	0	3	0.130000	56.675060	34.342636	21.833313
61	0	3	0.130000	56.675061	34.516034	23.623147
62	0	3	0.130000	56.719855	35.978234	22.578174
63	1	6	-0.180000	39.609482	30.442504	23.782181
64	1	5	-0.120000	41.126770	30.452522	23.781211
65	1	5	-0.120000	41.655005	31.874808	23.643420
66	1	5	-0.120000	43.177058	31.886096	23.642326
67	1	5	-0.120000	43.692516	33.310653	23.504315
68	1	5	-0.120000	45.212037	33.319648	23.503443
69	1	5	-0.120000	45.722468	34.743384	23.365511
70	1	5	-0.120000	47.240191	34.748442	23.365020
71	1	5	-0.120000	47.747829	36.171758	23.227130
72	1	5	-0.120000	49.264004	36.171219	23.227181
73	1	5	-0.120000	49.776121	37.591612	23.089574
74	1	5	-0.120000	51.292475	37.574780	23.091204
75	1	5	-0.120000	51.816189	38.987774	22.954313
76	1	5	-0.120000	53.336224	38.971099	22.955928
77	1	4	0.010000	53.826330	40.398970	22.817596
78	1	2	-0.170000	55.346043	40.456705	22.812002
79	1	1	0.120000	55.859548	41.896931	22.672473
80	1	2	-0.170000	55.402294	42.518564	21.356794
81	1	2	-0.170000	55.402296	42.759558	23.844359
82	1	2	-0.170000	57.386802	41.851133	22.676909
83	1	7	0.060000	39.237741	29.418899	23.881349
84	1	7	0.060000	39.217690	30.862254	22.850268
85	1	7	0.060000	39.217690	31.033338	24.616189
86	1	7	0.060000	41.496609	29.835688	22.954069
87	1	7	0.060000	41.496609	30.005936	24.711376
88	1	7	0.060000	41.283260	32.492179	24.470220
89	1	7	0.060000	41.283259	32.321988	22.713487
90	1	7	0.060000	43.555242	31.274237	22.814592
91	1	7	0.060000	43.555243	31.444506	24.572116
92	1	7	0.060000	43.318737	33.925893	24.331575
93	1	7	0.060000	43.318736	33.755653	22.574339
94	1	7	0.060000	45.589674	32.707626	22.675739
95	1	7	0.060000	45.589675	32.877891	24.433235
96	1	7	0.060000	45.348465	35.357754	24.193007
97	1	7	0.060000	45.348464	35.187484	22.435472
98	1	7	0.060000	47.617150	34.136071	22.537416
99	1	7	0.060000	47.617151	34.306324	24.294783
100	1	7	0.060000	47.374295	36.785760	24.054792
101	1	7	0.060000	47.374294	36.615465	22.296997
102	1	7	0.060000	49.639126	35.557958	22.399650
103	1	7	0.060000	49.639127	35.728214	24.157043
104	1	7	0.060000	49.405137	38.207807	23.916832
105	1	7	0.060000	49.405136	38.037549	22.159417
106	1	7	0.060000	51.661706	36.959352	22.263246
107	1	7	0.060000	51.661707	37.129730	24.021899
108	1	7	0.060000	51.445237	39.606353	23.780428
109	1	7	0.060000	51.445236	39.436271	22.024821
110	1	7	0.060000	53.708092	38.359789	22.126291
111	1	7	0.060000	53.708093	38.530412	23.887481
112	1	7	0.060000	53.415657	40.979956	23.647949
113	1	7	0.060000	53.415656	40.809759	21.891160
114	1	3	0.130000	55.754711	39.881395	21.973039
115	1	3	0.130000	55.754712	40.053139	23.745798
116	1	3	0.130000	54.313549	42.620121	21.365172
117	1	3	0.130000	55.723515	41.868847	20.538231
118	1	3	0.130000	55.854708	43.509373	21.267007
119	1	3	0.130000	54.313551	42.857618	23.816643
120	1	3	0.130000	55.854709	43.749176	23.742281
121	1	3	0.130000	55.723518	42.279054	24.772416
122	1	3	0.130000	57.716650	41.238663	21.832928
123	1	3	0.130000	57.716651	41.412061	23.622762
124	1	3	0.130000	57.761445	42.874261	22.577789
125	2	6	-0.180000	29.473737	5.443834	20.795290
126	2	5	-0.120000	30.991025	5.453852	20.794320
127	2	5	-0.120000	31.519260	6.876138	20.656529
128	2	5	-0.120000	33.041313	6.887426	20.655435
129	2	5	-0.120000	33.556771	8.311983	20.517424
130	2	5	-0.120000	35.076292	8.320978	20.516552
131	2	5	-0.120000	35.586723	9.744714	20.378620
132	2	5	-0.120000	37.104446	9.749772	20.378129
133	2	5	-0.120000	37.612084	11.173088	20.240239
134	2	5	-0.120000	39.128259	11.172549	20.240290
135	2	5	-0.120000	39.640376	12.592942	20.102683
136	2	5	-0.120000	41.156730	12.576110	20.104313
137	2	5	-0.120000	41.680444	13.989104	19.967422
138	2	5	-0.120000	43.200479	13.972429	19.969037
139	2	4	0.010000	43.690585	15.400300	19.830705
140	2	2	-0.170000	45.210298	15.458035	19.825111
141	2	1	0.120000	45.723803	16.898261	19.685582
142	2	2	-0.170000	45.266549	17.519894	18.369903
143	2	2	-0.170000	45.266551	17.760888	20.857468
144	2	2	-0.170000	47.251057	16.852463	19.690018
145	2	7	0.060000	29.101996	4.420229	20.894458
146	2	7	0.060000	29.081945	5.863584	19.863377
147	2	7	0.060000	29.081945	6.034668	21.629298
148	2	7	0.060000	31.360864	4.837018	19.967178
149	2	7	0.060000	31.360864	5.007266	21.724485
150	2	7	0.060000	31.147515	7.493509	21.483329
151	2	7	0.060000	31.147514	7.323318	19.726596
152	2	7	0.060000	33.419497	6.275567	19.827701
153	2	7	0.060000	33.419498	6.445836	21.585225
154	2	7	0.060000	33.182992	8.927223	21.344684
155	2	7	0.060000	33.182991	8.756983	19.587448
156	2	7	0.060000	35.453929	7.708956	19.688848
157	2	7	0.060000	35.453930	7.879221	21.446344
158	2	7	0.060000	35.212720	10.359084	21.206116
159	2	7	0.060000	35.212719	10.188814	19.448581
160	2	7	0.060000	37.481405	9.137401	19.550525
161	2	7	0.060000	37.481406	9.307654	21.307892
162	2	7	0.060000	37.238550	11.787090	21.067901
163	2	7	0.060000	37.238549	11.616795	19.310106
164	2	7	0.060000	39.503381	10.559288	19.412759
165	2	7	0.060000	39.503382	10.729544	21.170152
166	2	7	0.060000	39.269392	13.209137	20.929941
167	2	7	0.060000	39.269391	13.038879	19.172526
168	2	7	0.060000	41.525961	11.960682	19.276355
169	2	7	0.060000	41.525962	12.131060	21.035008
170	2	7	0.060000	41.309492	14.607683	20.793537
171	2	7	0.060000	41.309491	14.437601	19.037930
172	2	7	0.060000	43.572347	13.361119	19.139400
173	2	7	0.060000	43.572348	13.531742	20.900590
174	2	7	0.060000	43.279912	15.981286	20.661058
175	2	7	0.060000	43.279911	15.811089	18.904269
176	2	3	0.130000	45.618966	14.882725	18.986148
177	2	3	0.130000	45.618967	15.054469	20.758907
178	2	3	0.130000	44.177804	17.621451	18.378281
179	2	3	0.130000	45.587770	16.870177	17.551340
180	2	3	0.130000	45.718963	18.510703	18.280116
181	2	3	0.130000	44.177806	17.858948	20.829752
182	2	3	0.130000	45.718964	18.750506	20.755390
183	2	3	0.130000	45.587773	17.280384	21.785525
184	2	3	0.130000	47.580905	16.239993	18.846037
185	2	3	0.130000	47.580906	16.413391	20.635871
186	2	3	0.130000	47.625700	17.875591	19.590898
187	3	6	-0.180000	7.327527	34.729747	18.464851
188	3	5	-0.120000	8.844815	34.739765	18.463881
189	3	5	-0.120000	9.373050	36.162051	18.326090
190	3	5	-0.120000	10.895103	36.173339	18.324996
191	3	5	-0.120000	11.410561	37.597896	18.186985
192	3	5	-0.120000	12.930082	37.606891	18.186113
193	3	5	-0.120000	13.440513	39.030627	18.048181
194	3	5	-0.120000	14.958236	39.035685	18.047690
195	3	5	-0.120000	15.465874	40.459001	17.909800
196	3	5	-0.120000	16.982049	40.458462	17.909851
197	3	5	-0.120000	17.494166	41.878855	17.772244
198	3	5	-0.120000	19.010520	41.862023	17.773874
199	3	5	-0.120000	19.534234	43.275017	17.636983
200	3	5	-0.120000	21.054269	43.258342	17.638598
201	3	4	0.010000	21.544375	44.686213	17.500266
202	3	2	-0.170000	23.064088	44.743948	17.494672
203	3	1	0.120000	23.577593	46.184174	17.355143
204	3	2	-0.170000	23.120339	46.805807	16.039464
205	3	2	-0.170000	23.120341	47.046801	18.527029
206	3	2	-0.170000	25.104847	46.138376	17.359579
207	3	7	0.060000	6.955786	33.706142	18.564019
208	3	7	0.060000	6.935735	35.149497	17.532938
209	3	7	0.060000	6.935735	35.320581	19.298859
210	3	7	0.060000	9.214654	34.122931	17.636739
211	3	7	0.060000	9.214654	34.293179	19.394046
212	3	7	0.060000	9.001305	36.779422	19.152890
213	3	7	0.060000	9.001304	36.609231	17.396157
214	3	7	0.060000	11.273287	35.561480	17.497262
215	3	7	0.060000	11.273288	35.731749	19.254786
216	3	7	0.060000	11.036782	38.213136	19.014245
217	3	7	0.060000	11.036781	38.042896	17.257009
218	3	7	0.060000	13.307719	36.994869	17.358409
219	3	7	0.060000	13.307720	37.165134	19.115905
220	3	7	0.060000	13.066510	39.644997	18.875677
221	3	7	0.060000	13.066509	39.474727	17.118142
222	3	7	0.060000	15.335195	38.423314	17.220086
223	3	7	0.060000	15.335196	38.593567	18.977453
224	3	7	0.060000	15.092340	41.073003	18.737462
225	3	7	0.060000	15.092339	40.902708	16.979667
226	3	7	0.060000	17.357171	39.845201	17.082320
227	3	7	0.060000	17.357172	40.015457	18.839713
228	3	7	0.060000	17.123182	42.495050	18.599502
229	3	7	0.060000	17.123181	42.324792	16.842087
230	3	7	0.060000	19.379751	41.246595	16.945916
231	3	7	0.060000	19.379752	41.416973	18.704569
232	3	7	0.060000	19.163282	43.893596	18.463098
233	3	7	0.060000	19.163281	43.723514	16.707491
234	3	7	0.060000	21.426137	42.647032	16.808961
235	3	7	0.060000	21.426138	42.817655	18.570151
236	3	7	0.060000	21.133702	45.267199	18.330619
237	3	7	0.060000	21.133701	45.097002	16.573830
238	3	3	0.130000	23.472756	44.168638	16.655709
239	3	3	0.130000	23.472757	44.340382	18.428468
240	3	3	0.130000	22.031594	46.907364	16.047842
241	3	3	0.130000	23.441560	46.156090	15.220901
242	3	3	0.130000	23.572753	47.796616	15.949677
243	3	3	0.130000	22.031596	47.144861	18.499313
244	3	3	0.130000	23.572754	48.036419	18.424951
245	3	3	0.130000	23.441563	46.566297	19.455086
246	3	3	0.130000	25.434695	45.525906	16.515598
247	3	3	0.130000	25.434696	45.699304	18.305432
248	3	3	0.130000	25.479490	47.161504	17.260459
249	4	6	-0.180000	32.461264	13.565389	21.054649
250	4	5	-0.120000	33.978552	13.575407	21.053679
251	4	5	-0.120000	34.506787	14.997693	20.915888
252	4	5	-0.120000	36.028840	15.008981	20.914794
253	4	5	-0.120000	36.544298	16.433538	20.776783
254	4	5	-0.120000	38.063819	16.442533	20.775911
255	4	5	-0.120000	38.574250	17.866269	20.637979
256	4	5	-0.120000	40.091973	17.871327	20.637488
257	4	5	-0.120000	40.599611	19.294643	20.499598
258	4	5	-0.120000	42.115786	19.294104	20.499649
259	4	5	-0.120000	42.627903	20.714497	20.362042
260	4	5	-0.120000	44.144257	20.697665	20.363672
261	4	5	-0.120000	44.667971	22.110659	20.226781
262	4	5	-0.120000	46.188006	22.093984	20.228396
263	4	4	0.010000	46.678112	23.521855	20.090064
264	4	2	-0.170000	48.197825	23.579590	20.084470
265	4	1	0.120000	48.711330	25.019816	19.944941
266	4	2	-0.170000	48.254076	25.641449	18.629262
267	4	2	-0.170000	48.254078	25.882443	21.116827
268	4	2	-0.170000	50.238584	24.974018	19.949377
269	4	7	0.060000	32.089523	12.541784	21.153817
270	4	7	0.060000	32.069472	13.985139	20.122736
271	4	7	0.060000	32.069472	14.156223	21.888657
272	4	7	0.060000	34.348391	12.958573	20.226537
273	4	7	0.060000	34.348391	13.128821	21.983844
274	4	7	0.060000	34.135042	15.615064	21.742688
275	4	7	0.060000	34.135041	15.444873	19.985955
276	4	7	0.060000	36.407024	14.397122	20.087060
277	4	7	0.060000	36.407025	14.567391	21.844584
278	4	7	0.060000	36.170519	17.048778	21.604043
279	4	7	0.060000	36.170518	16.878538	19.846807
280	4	7	0.060000	38.441456	15.830511	19.948207
281	4	7	0.060000	38.441457	16.000776	21.705703
282	4	7	0.060000	38.200247	18.480639	21.465475
283	4	7	0.060000	38.200246	18.310369	19.707940
284	4	7	0.060000	40.468932	17.258956	19.809884
285	4	7	0.060000	40.468933	17.429209	21.567251
286	4	7	0.060000	40.226077	19.908645	21.327260
287	4	7	0.060000	40.226076	19.738350	19.569465
288	4	7	0.060000	42.490908	18.680843	19.672118
289	4	7	0.060000	42.490909	18.851099	21.429511
290	4	7	0.060000	42.256919	21.330692	21.189300
291	4	7	0.060000	42.256918	21.160434	19.431885
292	4	7	0.060000	44.513488	20.082237	19.535714
293	4	7	0.060000	44.513489	20.252615	21.294367
294	4	7	0.060000	44.297019	22.729238	21.052896
295	4	7	0.060000	44.297018	22.559156	19.297289
296	4	7	0.060000	46.559874	21.482674	19.398759
297	4	7	0.060000	46.559875	21.653297	21.159949
298	4	7	0.060000	46.267439	24.102841	20.920417
299	4	7	0.060000	46.267438	23.932644	19.163628
300	4	3	0.130000	48.606493	23.004280	19.245507
301	4	3	0.130000	48.606494	23.176024	21.018266
302	4	3	0.130000	47.165331	25.743006	18.637640
303	4	3	0.130000	48.575297	24.991732	17.810699
304	4	3	0.130000	48.706490	26.632258	18.539475
305	4	3	0.130000	47.165333	25.980503	21.089111
306	4	3	0.130000	48.706491	26.872061	21.014749
307	4	3	0.130000	48.575300	25.401939	22.044884
308	4	3	0.130000	50.568432	24.361548	19.105396
309	4	3	0.130000	50.568433	24.534946	20.895230
310	4	3	0.130000	50.613227	25.997146	19.850257
311	5	6	-0.180000	30.099109	15.653070	14.589316
312	5	5	-0.120000	31.616397	15.663088	14.588346
313	5	5	-0.120000	32.144632	17.085374	14.450555
314	5	5	-0.120000	33.666685	17.096662	14.449461
315	5	5	-0.120000	34.182143	18.521219	14.311450
316	5	5	-0.120000	35.701664	18.530214	14.310578
317	5	5	-0.120000	36.212095	19.953950	14.172646
318	5	5	-0.120000	37.729818	19.959008	14.172155
319	5	5	-0.120000	38.237456	21.382324	14.034265
320	5	5	-0.120000	39.753631	21.381785	14.034316
321	5	5	-0.120000	40.265748	22.802178	13.896709
322	5	5	-0.120000	41.782102	22.785346	13.898339
323	5	5	-0.120000	42.305816	24.198340	13.761448
324	5	5	-0.120000	43.825851	24.181665	13.763063
325	5	4	0.010000	44.315957	25.609536	13.624731
326	5	2	-0.170000	45.835670	25.667271	13.619137
327	5	1	0.120000	46.349175	27.107497	13.479608
328	5	2	-0.170000	45.891921	27.729130	12.163929
329	5	2	-0.170000	45.891923	27.970124	14.651494
330	5	2	-0.170000	47.876429	27.061699	13.484044
331	5	7	0.060000	29.727368	14.629465	14.688484
332	5	7	0.060000	29.707317	16.072820	13.657403
333	5	7	0.060000	29.707317	16.243904	15.423324
334	5	7	0.060000	31.986236	15.046254	13.761204
335	5	7	0.060000	31.986236	15.216502	15.518511
336	5	7	0.060000	31.772887	17.702745	15.277355
337	5	7	0.060000	31.772886	17.532554	13.520622
338	5	7	0.060000	34.044869	16.484803	13.621727
339	5	7	0.060000	34.044870	16.655072	15.379251
340	5	7	0.060000	33.808364	19.136459	15.138710
341	5	7	0.060000	33.808363	18.966219	13.381474
342	5	7	0.060000	36.079301	17.918192	13.482874
343	5	7	0.060000	36.079302	18.088457	15.240370
344	5	7	0.060000	35.838092	20.568320	15.000142
345	5	7	0.060000	35.838091	20.398050	13.242607
346	5	7	0.060000	38.106777	19.346637	13.344551
347	5	7	0.060000	38.106778	19.516890	15.101918
348	5	7	0.060000	37.863922	21.996326	14.861927
349	5	7	0.060000	37.863921	21.826031	13.104132
350	5	7	0.060000	40.128753	20.768524	13.206785
351	5	7	0.060000	40.128754	20.938780	14.964178
352	5	7	0.060000	39.894764	23.418373	14.723967
353	5	7	0.060000	39.894763	23.248115	12.966552
354	5	7	0.060000	42.151333	22.169918	13.070381
355	5	7	0.060000	42.151334	22.340296	14.829034
356	5	7	0.060000	41.934864	24.816919	14.587563
357	5	7	0.060000	41.934863	24.646837	12.831956
358	5	7	0.060000	44.197719	23.570355	12.933426
359	5	7	0.060000	44.197720	23.740978	14.694616
360	5	7	0.060000	43.905284	26.190522	14.455084
361	5	7	0.060000	43.905283	26.020325	12.698295
362	5	3	0.130000	46.244338	25.091961	12.780174
363	5	3	0.130000	46.244339	25.263705	14.552933
364	5	3	0.130000	44.803176	27.830687	12.172307
365	5	3	0.130000	46.213142	27.079413	11.345366
366	5	3	0.130000	46.344335	28.719939	12.074142
367	5	3	0.130000	44.803178	28.068184	14.623778
368	5	3	0.130000	46.344336	28.959742	14.549416
369	5	3	0.130000	46.213145	27.489620	15.579551
370	5	3	0.130000	48.206277	26.449229	12.640063
371	5	3	0.130000	48.206278	26.622627	14.429897
372	5	3	0.130000	48.251072	28.084827	13.384924
373	6	6	-0.180000	29.541186	31.839890	14.518314
374	6	5	-0.120000	31.058474	31.849908	14.517344
375	6	5	-0.120000	31.586709	33.272194	14.379553
376	6	5	-0.120000	33.108762	33.283482	14.378459
377	6	5	-0.120000	33.624220	34.708039	14.240448
378	6	5	-0.120000	35.143741	34.717034	14.239576
379	6	5	-0.120000	35.654172	36.140770	14.101644
380	6	5	-0.120000	37.171895	36.145828	14.101153
381	6	5	-0.120000	37.679533	37.569144	13.963263
382	6	5	-0.120000	39.195708	37.568605	13.963314
383	6	5	-0.120000	39.707825	38.988998	13.825707
384	6	5	-0.120000	41.224179	38.972166	13.827337
385	6	5	-0.120000	41.747893	40.385160	13.690446
386	6	5	-0.120000	43.267928	40.368485	13.692061
387	6	4	0.010000	43.758034	41.796356	13.553729
388	6	2	-0.170000	45.277747	41.854091	13.548135
389	6	1	0.120000	45.791252	43.294317	13.408606
390	6	2	-0.170000	45.333998	43.915950	12.092927
391	6	2	-0.170000	45.334000	44.156944	14.580492
392	6	2	-0.170000	47.318506	43.248519	13.413042
393	6	7	0.060000	29.169445	30.816285	14.617482
394	6	7	0.060000	29.149394	32.259640	13.586401
395	6	7	0.060000	29.149394	32.430724	15.352322
396	6	7	0.060000	31.428313	31.233074	13.690202
397	6	7	0.060000	31.428313	31.403322	15.447509
398	6	7	0.060000	31.214964	33.889565	15.206353
399	6	7	0.060000	31.214963	33.719374	13.449620
400	6	7	0.060000	33.486946	32.671623	13.550725
401	6	7	0.060000	33.486947	32.841892	15.308249
402	6	7	0.060000	33.250441	35.323279	15.067708
403	6	7	0.060000	33.250440	35.153039	13.310472
404	6	7	0.060000	35.521378	34.105012	13.411872
405	6	7	0.060000	35.521379	34.275277	15.169368
406	6	7	0.060000	35.280169	36.755140	14.929140
407	6	7	0.060000	35.280168	36.584870	13.171605
408	6	7	0.060000	37.548854	35.533457	13.273549
409	6	7	0.060000	37.548855	35.703710	15.030916
410	6	7	0.060000	37.305999	38.183146	14.790925
411	6	7	0.060000	37.305998	38.012851	13.033130
412	6	7	0.060000	39.570830	36.955344	13.135783
413	6	7	0.060000	39.570831	37.125600	14.893176
414	6	7	0.060000	39.336841	39.605193	14.652965
415	6	7	0.060000	39.336840	39.434935	12.895550
416	6	7	0.060000	41.593410	38.356738	12.999379
417	6	7	0.060000	41.593411	38.527116	14.758032
418	6	7	0.060000	41.376941	41.003739	14.516561
419	6	7	0.060000	41.376940	40.833657	12.760954
420	6	7	0.060000	43.639796	39.757175	12.862424
421	6	7	0.060000	43.639797	39.927798	14.623614
422	6	7	0.060000	43.347361	42.377342	14.384082
423	6	7	0.060000	43.347360	42.207145	12.627293
424	6	3	0.130000	45.686415	41.278781	12.709172
425	6	3	0.130000	45.686416	41.450525	14.481931
426	6	3	0.130000	44.245253	44.017507	12.101305
427	6	3	0.130000	45.655219	43.266233	11.274364
428	6	3	0.130000	45.786412	44.906759	12.003140
429	6	3	0.130000	44.245255	44.255004	14.552776
430	6	3	0.130000	45.786413	45.146562	14.478414
431	6	3	0.130000	45.655222	43.676440	15.508549
432	6	3	0.130000	47.648354	42.636049	12.569061
433	6	3	0.130000	47.648355	42.809447	14.358895
434	6	3	0.130000	47.693149	44.271647	13.313922
435	7	6	-0.180000	44.695079	3.270923	19.846072
436	7	5	-0.120000	46.212367	3.280941	19.845102
437	7	5	-0.120000	46.740602	4.703227	19.707311
438	7	5	-0.120000	48.262655	4.714515	19.706217
439	7	5	-0.120000	48.778113	6.139072	19.568206
440	7	5	-0.120000	50.297634	6.148067	19.567334
441	7	5	-0.120000	50.808065	7.571803	19.429402
442	7	5	-0.120000	52.325788	7.576861	19.428911
443	7	5	-0.120000	52.833426	9.000177	19.291021
444	7	5	-0.120000	54.349601	8.999638	19.291072
445	7	5	-0.120000	54.861718	10.420031	19.153465
446	7	5	-0.120000	56.378072	10.403199	19.155095
447	7	5	-0.120000	56.901786	11.816193	19.018204
448	7	5	-0.120000	58.421821	11.799518	19.019819
449	7	4	0.010000	58.911927	13.227389	18.881487
450	7	2	-0.170000	60.431640	13.285124	18.875893
451	7	1	0.120000	60.945145	14.725350	18.736364
452	7	2	-0.170000	60.487891	15.346983	17.420685
453	7	2	-0.170000	60.487893	15.587977	19.908250
454	7	2	-0.170000	62.472399	14.679552	18.740800
455	7	7	0.060000	44.323338	2.247318	19.945240
456	7	7	0.060000	44.303287	3.690673	18.914159
457	7	7	0.060000	44.303287	3.861757	20.680080
458	7	7	0.060000	46.582206	2.664107	19.017960
459	7	7	0.060000	46.582206	2.834355	20.775267
460	7	7	0.060000	46.368857	5.320598	20.534111
461	7	7	0.060000	46.368856	5.150407	18.777378
462	7	7	0.060000	48.640839	4.102656	18.878483
463	7	7	0.060000	48.640840	4.272925	20.636007
464	7	7	0.060000	48.404334	6.754312	20.395466
465	7	7	0.060000	48.404333	6.584072	18.638230
466	7	7	0.060000	50.675271	5.536045	18.739630
467	7	7	0.060000	50.675272	5.706310	20.497126
468	7	7	0.060000	50.434062	8.186173	20.256898
469	7	7	0.060000	50.434061	8.015903	18.499363
470	7	7	0.060000	52.702747	6.964490	18.601307
471	7	7	0.060000	52.702748	7.134743	20.358674
472	7	7	0.060000	52.459892	9.614179	20.118683
473	7	7	0.060000	52.459891	9.443884	18.360888
474	7	7	0.060000	54.724723	8.386377	18.463541
475	7	7	0.060000	54.724724	8.556633	20.220934
476	7	7	0.060000	54.490734	11.036226	19.980723
477	7	7	0.060000	54.490733	10.865968	18.223308
478	7	7	0.060000	56.747303	9.787771	18.327137
479	7	7	0.060000	56.747304	9.958149	20.085790
480	7	7	0.060000	56.530834	12.434772	19.844319
481	7	7	0.060000	56.530833	12.264690	18.088712
482	7	7	0.060000	58.793689	11.188208	18.190182
483	7	7	0.060000	58.793690	11.358831	19.951372
484	7	7	0.060000	58.501254	13.808375	19.711840
485	7	7	0.060000	58.501253	13.638178	17.955051
486	7	3	0.130000	60.840308	12.709814	18.036930
487	7	3	0.130000	60.840309	12.881558	19.809689
488	7	3	0.130000	59.399146	15.448540	17.429063
489	7	3	0.130000	60.809112	14.697266	16.602122
490	7	3	0.130000	60.940305	16.337792	17.330898
491	7	3	0.130000	59.399148	15.686037	19.880534
492	7	3	0.130000	60.940306	16.577595	19.806172
493	7	3	0.130000	60.809115	15.107473	20.836307
494	7	3	0.130000	62.802247	14.067082	17.896819
495	7	3	0.130000	62.802248	14.240480	19.686653
496	7	3	0.130000	62.847042	15.702680	18.641680
497	8	6	-0.180000	39.082425	40.237499	18.123107
498	8	5	-0.120000	40.599713	40.247517	18.122137
499	8	5	-0.120000	41.127948	41.669803	17.984346
500	8	5	-0.120000	42.650001	41.681091	17.983252
501	8	5	-0.120000	43.165459	43.105648	17.845241
502	8	5	-0.120000	44.684980	43.114643	17.844369
503	8	5	-0.120000	45.195411	44.538379	17.706437
504	8	5	-0.120000	46.713134	44.543437	17.705946
505	8	5	-0.120000	47.220772	45.966753	17.568056
506	8	5	-0.120000	48.736947	45.966214	17.568107
507	8	5	-0.120000	49.249064	47.386607	17.430500
508	8	5	-0.120000	50.765418	47.369775	17.432130
509	8	5	-0.120000	51.289132	48.782769	17.295239
510	8	5	-0.120000	52.809167	48.766094	17.296854
511	8	4	0.010000	53.299273	50.193965	17.158522
512	8	2	-0.170000	54.818986	50.251700	17.152928
513	8	1	0.120000	55.332491	51.691926	17.013399
514	8	2	-0.170000	54.875237	52.313559	15.697720
515	8	2	-0.170000	54.875239	52.554553	18.185285
516	8	2	-0.170000	56.859745	51.646128	17.017835
517	8	7	0.060000	38.710684	39.213894	18.222275
518	8	7	0.060000	38.690633	40.657249	17.191194
519	8	7	0.060000	38.690633	40.828333	18.957115
520	8	7	0.060000	40.969552	39.630683	17.294995
521	8	7	0.060000	40.969552	39.800931	19.052302
522	8	7	0.060000	40.756203	42.287174	18.811146
523	8	7	0.060000	40.756202	42.116983	17.054413
524	8	7	0.060000	43.028185	41.069232	17.155518
525	8	7	0.060000	43.028186	41.239501	18.913042
526	8	7	0.060000	42.791680	43.720888	18.672501
527	8	7	0.060000	42.791679	43.550648	16.915265
528	8	7	0.060000	45.062617	42.502621	17.016665
529	8	7	0.060000	45.062618	42.672886	18.774161
530	8	7	0.060000	44.821408	45.152749	18.533933
531	8	7	0.060000	44.821407	44.982479	16.776398
532	8	7	0.060000	47.090093	43.931066	16.878342
533	8	7	0.060000	47.090094	44.101319	18.635709
534	8	7	0.060000	46.847238	46.580755	18.395718
535	8	7	0.060000	46.847237	46.410460	16.637923
536	8	7	0.060000	49.112069	45.352953	16.740576
537	8	7	0.060000	49.112070	45.523209	18.497969
538	8	7	0.060000	48.878080	48.002802	18.257758
539	8	7	0.060000	48.878079	47.832544	16.500343
540	8	7	0.060000	51.134649	46.754347	16.604172
541	8	7	0.060000	51.134650	46.924725	18.362825
542	8	7	0.060000	50.918180	49.401348	18.121354
543	8	7	0.060000	50.918179	49.231266	16.365747
544	8	7	0.060000	53.181035	48.154784	16.467217
545	8	7	0.060000	53.181036	48.325407	18.228407
546	8	7	0.060000	52.888600	50.774951	17.988875
547	8	7	0.060000	52.888599	50.604754	16.232086
548	8	3	0.130000	55.227654	49.676390	16.313965
549	8	3	0.130000	55.227655	49.848134	18.086724
550	8	3	0.130000	53.786492	52.415116	15.706098
551	8	3	0.130000	55.196458	51.663842	14.879157
552	8	3	0.130000	55.327651	53.304368	15.607933
553	8	3	0.130000	53.786494	52.652613	18.157569
554	8	3	0.130000	55.327652	53.544171	18.083207
555	8	3	0.130000	55.196461	52.074049	19.113342
556	8	3	0.130000	57.189593	51.033658	16.173854
557	8	3	0.130000	57.189594	51.207056	17.963688