data.mxene - created by mBuild; units = real

14640 atoms
13720 bonds
19200 angles
15840 dihedrals
0 impropers

12 atom types
11 bond types
19 angle types
15 dihedral types

0.000000 64.846440 xlo xhi
0.000000 55.552000 ylo yhi
0.000000 53.546200 zlo zhi

Masses

6	12.010780	# lopes_008
5	12.010780	# lopes_007
4	12.010780	# lopes_006
2	12.010780	# lopes_004
1	14.006720	# lopes_003
7	1.007947	# lopes_009
3	1.007947	# lopes_005
9	47.867100	# mxene_002
10	12.010780	# mxene_003
8	47.867100	# mxene_001
11	15.999430	# mxene_004
12	1.007947	# mxene_005

Pair Coeffs # lj 
#	epsilon (kcal/mol)		sigma (Angstrom)
6	0.06600		3.50000		# lopes_008
5	0.06600		3.50000		# lopes_007
4	0.06600		3.50000		# lopes_006
2	0.06600		3.50000		# lopes_004
1	0.17000		3.25000		# lopes_003
7	0.03000		2.50000		# lopes_009
3	0.03000		2.50000		# lopes_005
9	0.15535		3.16600		# mxene_002
10	0.15535		3.16600		# mxene_003
8	0.15535		3.16600		# mxene_001
11	0.01434		3.55320		# mxene_004
12	0.00000		3.16600		# mxene_005

Bond Coeffs # harmonic
#	k(kcal/mol/angstrom^2)		req(angstrom)
1	267.925		1.529		# lopes_007	lopes_007
2	339.986		1.09		# lopes_006	lopes_009
3	339.986		1.09		# lopes_008	lopes_009
4	400.0		2.115		# mxene_001	mxene_004
5	400.0		0.975		# mxene_004	mxene_005
6	339.986		1.09		# lopes_004	lopes_005
7	336.998		1.08		# lopes_003	lopes_004
8	267.925		1.529		# lopes_004	lopes_006
9	339.986		1.09		# lopes_007	lopes_009
10	267.925		1.529		# lopes_006	lopes_007
11	267.925		1.529		# lopes_007	lopes_008

Angle Coeffs # harmonic
#	reduced_k		theteq(deg)
1	18.714		110.70000	# lopes_007	lopes_007	lopes_009
2	58.353		112.70100	# lopes_004	lopes_006	lopes_007
3	32.995		107.80200	# lopes_009	lopes_008	lopes_009
4	50.0		112.70000	# lopes_007	lopes_007	lopes_008
5	50.0		112.70000	# lopes_006	lopes_007	lopes_007
6	37.5		110.70100	# lopes_007	lopes_006	lopes_009
7	50.0		109.50000	# lopes_004	lopes_003	lopes_004
8	100.0		109.47000	# mxene_001	mxene_004	mxene_005
9	58.353		112.70000	# lopes_003	lopes_004	lopes_006
10	32.995		107.80200	# lopes_009	lopes_006	lopes_009
11	32.995		107.80200	# lopes_005	lopes_004	lopes_005
12	37.5		110.70000	# lopes_003	lopes_004	lopes_005
13	37.5		110.70100	# lopes_004	lopes_006	lopes_009
14	37.5		110.70100	# lopes_008	lopes_007	lopes_009
15	37.5		110.70100	# lopes_005	lopes_004	lopes_006
16	58.353		112.70100	# lopes_007	lopes_008	lopes_009
17	37.5		110.70100	# lopes_006	lopes_007	lopes_009
18	32.995		107.80200	# lopes_009	lopes_007	lopes_009
19	50.0		112.70000	# lopes_007	lopes_007	lopes_007

Dihedral Coeffs # opls
#	f1(kcal/mol)	f2(kcal/mol)	f3(kcal/mol)	f4(kcal/mol)
1	1.74100	-0.15800		0.27900		-0.00000	# lopes_007	lopes_007	lopes_006	lopes_004
2	-0.00000	0.00000		0.36600		-0.00000	# lopes_008	lopes_007	lopes_007	lopes_009
3	1.74100	-0.15800		0.27900		-0.00000	# lopes_007	lopes_007	lopes_007	lopes_007
4	-0.00000	0.00000		0.36600		-0.00000	# lopes_007	lopes_007	lopes_006	lopes_009
5	0.00000	0.00000		0.31800		-0.00000	# lopes_009	lopes_008	lopes_007	lopes_009
6	1.74100	-0.15800		0.27900		-0.00000	# lopes_007	lopes_007	lopes_007	lopes_006
7	0.00000	0.00000		0.31800		-0.00000	# lopes_009	lopes_007	lopes_007	lopes_009
8	-0.00000	0.00000		0.36600		-0.00000	# lopes_007	lopes_006	lopes_004	lopes_005
9	-0.00000	0.00000		0.36600		-0.00000	# lopes_006	lopes_007	lopes_007	lopes_009
10	-0.00000	0.00000		0.36600		-0.00000	# lopes_007	lopes_007	lopes_007	lopes_009
11	1.74100	-0.15800		0.27900		-0.00000	# lopes_008	lopes_007	lopes_007	lopes_007
12	-0.00000	0.00000		0.36600		-0.00000	# lopes_004	lopes_006	lopes_007	lopes_009
13	0.00000	0.00000		0.31800		-0.00000	# lopes_009	lopes_007	lopes_006	lopes_009
14	-0.00000	0.00000		0.36600		-0.00000	# lopes_007	lopes_007	lopes_008	lopes_009
15	0.00000	0.00000		0.31800		-0.00000	# lopes_009	lopes_006	lopes_004	lopes_005

Atoms

1	0	6	-0.180000	43.428922	30.368698	16.083778
2	0	5	-0.120000	44.946211	30.378596	16.085602
3	0	5	-0.120000	45.474445	31.783882	16.344550
4	0	5	-0.120000	46.996498	31.795035	16.346604
5	0	5	-0.120000	47.511957	33.202565	16.605966
6	0	5	-0.120000	49.031477	33.211453	16.607603
7	0	5	-0.120000	49.541908	34.618172	16.866816
8	0	5	-0.120000	51.059631	34.623170	16.867736
9	0	5	-0.120000	51.567269	36.029473	17.126872
10	0	5	-0.120000	53.083444	36.028942	17.126773
11	0	5	-0.120000	53.595561	37.432357	17.385377
12	0	5	-0.120000	55.111915	37.415727	17.382312
13	0	5	-0.120000	55.635629	38.811832	17.639568
14	0	5	-0.120000	57.155664	38.795356	17.636532
15	0	4	0.010000	57.645770	40.206161	17.896497
16	0	2	-0.170000	59.165483	40.263206	17.907008
17	0	1	0.120000	59.678988	41.686218	18.169222
18	0	2	-0.170000	59.221734	42.645927	17.075422
19	0	2	-0.170000	59.221736	42.193028	19.533255
20	0	2	-0.170000	61.206242	41.640968	18.160883
21	0	7	0.060000	43.057181	29.357327	15.897416
22	0	7	0.060000	43.037130	31.028706	15.303366
23	0	7	0.060000	43.037130	30.707195	17.048180
24	0	7	0.060000	45.316049	30.013213	15.120644
25	0	7	0.060000	45.316049	29.693269	16.856947
26	0	7	0.060000	45.102700	32.149875	17.309327
27	0	7	0.060000	45.102699	32.469715	15.573591
28	0	7	0.060000	47.374682	31.434598	15.382447
29	0	7	0.060000	47.374683	31.114614	17.118965
30	0	7	0.060000	47.138177	33.566383	17.570599
31	0	7	0.060000	47.138176	33.886314	15.834367
32	0	7	0.060000	49.409114	32.850851	15.643430
33	0	7	0.060000	49.409115	32.530872	17.379920
34	0	7	0.060000	49.167905	34.981088	17.831435
35	0	7	0.060000	49.167905	35.301074	16.094907
36	0	7	0.060000	51.436590	34.262205	15.903562
37	0	7	0.060000	51.436591	33.942250	17.639924
38	0	7	0.060000	51.193735	36.391990	18.091550
39	0	7	0.060000	51.193734	36.712024	16.354766
40	0	7	0.060000	53.458566	35.667101	16.162424
41	0	7	0.060000	53.458567	35.347141	17.898812
42	0	7	0.060000	53.224577	37.797093	18.350270
43	0	7	0.060000	53.224576	38.117057	16.613860
44	0	7	0.060000	55.481146	37.051920	16.416957
45	0	7	0.060000	55.481147	36.731731	18.154589
46	0	7	0.060000	55.264677	39.179175	18.604018
47	0	7	0.060000	55.264676	39.498810	16.869396
48	0	7	0.060000	57.527532	38.435971	16.670695
49	0	7	0.060000	57.527533	38.115319	18.410835
50	0	7	0.060000	57.235097	40.536197	18.854676
51	0	7	0.060000	57.235097	40.856047	17.118885
52	0	3	0.130000	59.574151	39.940997	16.942113
53	0	3	0.130000	59.574152	39.618240	18.693683
54	0	3	0.130000	58.132990	42.741257	17.111426
55	0	3	0.130000	59.542955	42.246570	16.109663
56	0	3	0.130000	59.674149	43.623186	17.261777
57	0	3	0.130000	58.132991	42.294929	19.533596
58	0	3	0.130000	59.674150	43.172525	19.707465
59	0	3	0.130000	59.542958	41.475673	20.293240
60	0	3	0.130000	61.536090	41.284414	17.180937
61	0	3	0.130000	61.536091	40.958547	18.949379
62	0	3	0.130000	61.580885	42.651866	18.347159
63	1	6	-0.180000	4.005024	19.048906	16.168691
64	1	5	-0.120000	5.522313	19.058804	16.170515
65	1	5	-0.120000	6.050547	20.464090	16.429463
66	1	5	-0.120000	7.572600	20.475243	16.431517
67	1	5	-0.120000	8.088059	21.882773	16.690879
68	1	5	-0.120000	9.607579	21.891661	16.692516
69	1	5	-0.120000	10.118010	23.298380	16.951729
70	1	5	-0.120000	11.635733	23.303378	16.952649
71	1	5	-0.120000	12.143371	24.709681	17.211785
72	1	5	-0.120000	13.659546	24.709150	17.211686
73	1	5	-0.120000	14.171663	26.112565	17.470290
74	1	5	-0.120000	15.688017	26.095935	17.467225
75	1	5	-0.120000	16.211731	27.492040	17.724481
76	1	5	-0.120000	17.731766	27.475564	17.721445
77	1	4	0.010000	18.221872	28.886369	17.981410
78	1	2	-0.170000	19.741585	28.943414	17.991921
79	1	1	0.120000	20.255090	30.366426	18.254135
80	1	2	-0.170000	19.797836	31.326135	17.160335
81	1	2	-0.170000	19.797838	30.873236	19.618168
82	1	2	-0.170000	21.782344	30.321176	18.245796
83	1	7	0.060000	3.633283	18.037535	15.982329
84	1	7	0.060000	3.613232	19.708914	15.388279
85	1	7	0.060000	3.613232	19.387403	17.133093
86	1	7	0.060000	5.892151	18.693421	15.205557
87	1	7	0.060000	5.892151	18.373477	16.941860
88	1	7	0.060000	5.678802	20.830083	17.394240
89	1	7	0.060000	5.678801	21.149923	15.658504
90	1	7	0.060000	7.950784	20.114806	15.467360
91	1	7	0.060000	7.950785	19.794822	17.203878
92	1	7	0.060000	7.714279	22.246591	17.655512
93	1	7	0.060000	7.714278	22.566522	15.919280
94	1	7	0.060000	9.985216	21.531059	15.728343
95	1	7	0.060000	9.985217	21.211080	17.464833
96	1	7	0.060000	9.744007	23.661296	17.916348
97	1	7	0.060000	9.744007	23.981282	16.179820
98	1	7	0.060000	12.012692	22.942413	15.988475
99	1	7	0.060000	12.012693	22.622458	17.724837
100	1	7	0.060000	11.769837	25.072198	18.176463
101	1	7	0.060000	11.769836	25.392232	16.439679
102	1	7	0.060000	14.034668	24.347309	16.247337
103	1	7	0.060000	14.034669	24.027349	17.983725
104	1	7	0.060000	13.800679	26.477301	18.435183
105	1	7	0.060000	13.800678	26.797265	16.698773
106	1	7	0.060000	16.057248	25.732128	16.501870
107	1	7	0.060000	16.057249	25.411939	18.239502
108	1	7	0.060000	15.840779	27.859383	18.688931
109	1	7	0.060000	15.840778	28.179018	16.954309
110	1	7	0.060000	18.103634	27.116179	16.755608
111	1	7	0.060000	18.103635	26.795527	18.495748
112	1	7	0.060000	17.811199	29.216405	18.939589
113	1	7	0.060000	17.811199	29.536255	17.203798
114	1	3	0.130000	20.150253	28.621205	17.027026
115	1	3	0.130000	20.150254	28.298448	18.778596
116	1	3	0.130000	18.709092	31.421465	17.196339
117	1	3	0.130000	20.119057	30.926778	16.194576
118	1	3	0.130000	20.250251	32.303394	17.346690
119	1	3	0.130000	18.709093	30.975137	19.618509
120	1	3	0.130000	20.250252	31.852733	19.792378
121	1	3	0.130000	20.119060	30.155881	20.378153
122	1	3	0.130000	22.112192	29.964622	17.265850
123	1	3	0.130000	22.112193	29.638755	19.034292
124	1	3	0.130000	22.156987	31.332074	18.432072
125	2	6	-0.180000	34.232871	40.057853	16.290033
126	2	5	-0.120000	35.750160	40.067751	16.291857
127	2	5	-0.120000	36.278394	41.473037	16.550805
128	2	5	-0.120000	37.800447	41.484190	16.552859
129	2	5	-0.120000	38.315906	42.891720	16.812221
130	2	5	-0.120000	39.835426	42.900608	16.813858
131	2	5	-0.120000	40.345857	44.307327	17.073071
132	2	5	-0.120000	41.863580	44.312325	17.073991
133	2	5	-0.120000	42.371218	45.718628	17.333127
134	2	5	-0.120000	43.887393	45.718097	17.333028
135	2	5	-0.120000	44.399510	47.121512	17.591632
136	2	5	-0.120000	45.915864	47.104882	17.588567
137	2	5	-0.120000	46.439578	48.500987	17.845823
138	2	5	-0.120000	47.959613	48.484511	17.842787
139	2	4	0.010000	48.449719	49.895316	18.102752
140	2	2	-0.170000	49.969432	49.952361	18.113263
141	2	1	0.120000	50.482937	51.375373	18.375477
142	2	2	-0.170000	50.025683	52.335082	17.281677
143	2	2	-0.170000	50.025685	51.882183	19.739510
144	2	2	-0.170000	52.010191	51.330123	18.367138
145	2	7	0.060000	33.861130	39.046482	16.103671
146	2	7	0.060000	33.841079	40.717861	15.509621
147	2	7	0.060000	33.841079	40.396350	17.254435
148	2	7	0.060000	36.119998	39.702368	15.326899
149	2	7	0.060000	36.119998	39.382424	17.063202
150	2	7	0.060000	35.906649	41.839030	17.515582
151	2	7	0.060000	35.906648	42.158870	15.779846
152	2	7	0.060000	38.178631	41.123753	15.588702
153	2	7	0.060000	38.178632	40.803769	17.325220
154	2	7	0.060000	37.942126	43.255538	17.776854
155	2	7	0.060000	37.942125	43.575469	16.040622
156	2	7	0.060000	40.213063	42.540006	15.849685
157	2	7	0.060000	40.213064	42.220027	17.586175
158	2	7	0.060000	39.971854	44.670243	18.037690
159	2	7	0.060000	39.971854	44.990229	16.301162
160	2	7	0.060000	42.240539	43.951360	16.109817
161	2	7	0.060000	42.240540	43.631405	17.846179
162	2	7	0.060000	41.997684	46.081145	18.297805
163	2	7	0.060000	41.997683	46.401179	16.561021
164	2	7	0.060000	44.262515	45.356256	16.368679
165	2	7	0.060000	44.262516	45.036296	18.105067
166	2	7	0.060000	44.028526	47.486248	18.556525
167	2	7	0.060000	44.028525	47.806212	16.820115
168	2	7	0.060000	46.285095	46.741075	16.623212
169	2	7	0.060000	46.285096	46.420886	18.360844
170	2	7	0.060000	46.068626	48.868330	18.810273
171	2	7	0.060000	46.068625	49.187965	17.075651
172	2	7	0.060000	48.331481	48.125126	16.876950
173	2	7	0.060000	48.331482	47.804474	18.617090
174	2	7	0.060000	48.039046	50.225352	19.060931
175	2	7	0.060000	48.039046	50.545202	17.325140
176	2	3	0.130000	50.378100	49.630152	17.148368
177	2	3	0.130000	50.378101	49.307395	18.899938
178	2	3	0.130000	48.936939	52.430412	17.317681
179	2	3	0.130000	50.346904	51.935725	16.315918
180	2	3	0.130000	50.478098	53.312341	17.468032
181	2	3	0.130000	48.936940	51.984084	19.739851
182	2	3	0.130000	50.478099	52.861680	19.913720
183	2	3	0.130000	50.346907	51.164828	20.499495
184	2	3	0.130000	52.340039	50.973569	17.387192
185	2	3	0.130000	52.340040	50.647702	19.155634
186	2	3	0.130000	52.384834	52.341021	18.553414
187	3	6	-0.180000	40.188063	6.163745	12.281989
188	3	5	-0.120000	41.705352	6.173643	12.283813
189	3	5	-0.120000	42.233586	7.578929	12.542761
190	3	5	-0.120000	43.755639	7.590082	12.544815
191	3	5	-0.120000	44.271098	8.997612	12.804177
192	3	5	-0.120000	45.790618	9.006500	12.805814
193	3	5	-0.120000	46.301049	10.413219	13.065027
194	3	5	-0.120000	47.818772	10.418217	13.065947
195	3	5	-0.120000	48.326410	11.824520	13.325083
196	3	5	-0.120000	49.842585	11.823989	13.324984
197	3	5	-0.120000	50.354702	13.227404	13.583588
198	3	5	-0.120000	51.871056	13.210774	13.580523
199	3	5	-0.120000	52.394770	14.606879	13.837779
200	3	5	-0.120000	53.914805	14.590403	13.834743
201	3	4	0.010000	54.404911	16.001208	14.094708
202	3	2	-0.170000	55.924624	16.058253	14.105219
203	3	1	0.120000	56.438129	17.481265	14.367433
204	3	2	-0.170000	55.980875	18.440974	13.273633
205	3	2	-0.170000	55.980877	17.988075	15.731466
206	3	2	-0.170000	57.965383	17.436015	14.359094
207	3	7	0.060000	39.816322	5.152374	12.095627
208	3	7	0.060000	39.796271	6.823753	11.501577
209	3	7	0.060000	39.796271	6.502242	13.246391
210	3	7	0.060000	42.075190	5.808260	11.318855
211	3	7	0.060000	42.075190	5.488316	13.055158
212	3	7	0.060000	41.861841	7.944922	13.507538
213	3	7	0.060000	41.861840	8.264762	11.771802
214	3	7	0.060000	44.133823	7.229645	11.580658
215	3	7	0.060000	44.133824	6.909661	13.317176
216	3	7	0.060000	43.897318	9.361430	13.768810
217	3	7	0.060000	43.897317	9.681361	12.032578
218	3	7	0.060000	46.168255	8.645898	11.841641
219	3	7	0.060000	46.168256	8.325919	13.578131
220	3	7	0.060000	45.927046	10.776135	14.029646
221	3	7	0.060000	45.927046	11.096121	12.293118
222	3	7	0.060000	48.195731	10.057252	12.101773
223	3	7	0.060000	48.195732	9.737297	13.838135
224	3	7	0.060000	47.952876	12.187037	14.289761
225	3	7	0.060000	47.952875	12.507071	12.552977
226	3	7	0.060000	50.217707	11.462148	12.360635
227	3	7	0.060000	50.217708	11.142188	14.097023
228	3	7	0.060000	49.983718	13.592140	14.548481
229	3	7	0.060000	49.983717	13.912104	12.812071
230	3	7	0.060000	52.240287	12.846967	12.615168
231	3	7	0.060000	52.240288	12.526778	14.352800
232	3	7	0.060000	52.023818	14.974222	14.802229
233	3	7	0.060000	52.023817	15.293857	13.067607
234	3	7	0.060000	54.286673	14.231018	12.868906
235	3	7	0.060000	54.286674	13.910366	14.609046
236	3	7	0.060000	53.994238	16.331244	15.052887
237	3	7	0.060000	53.994238	16.651094	13.317096
238	3	3	0.130000	56.333292	15.736044	13.140324
239	3	3	0.130000	56.333293	15.413287	14.891894
240	3	3	0.130000	54.892131	18.536304	13.309637
241	3	3	0.130000	56.302096	18.041617	12.307874
242	3	3	0.130000	56.433290	19.418233	13.459988
243	3	3	0.130000	54.892132	18.089976	15.731807
244	3	3	0.130000	56.433291	18.967572	15.905676
245	3	3	0.130000	56.302099	17.270720	16.491451
246	3	3	0.130000	58.295231	17.079461	13.379148
247	3	3	0.130000	58.295232	16.753594	15.147590
248	3	3	0.130000	58.340026	18.446913	14.545370
249	4	6	-0.180000	17.257771	17.101313	16.389109
250	4	5	-0.120000	18.775060	17.111211	16.390933
251	4	5	-0.120000	19.303294	18.516497	16.649881
252	4	5	-0.120000	20.825347	18.527650	16.651935
253	4	5	-0.120000	21.340806	19.935180	16.911297
254	4	5	-0.120000	22.860326	19.944068	16.912934
255	4	5	-0.120000	23.370757	21.350787	17.172147
256	4	5	-0.120000	24.888480	21.355785	17.173067
257	4	5	-0.120000	25.396118	22.762088	17.432203
258	4	5	-0.120000	26.912293	22.761557	17.432104
259	4	5	-0.120000	27.424410	24.164972	17.690708
260	4	5	-0.120000	28.940764	24.148342	17.687643
261	4	5	-0.120000	29.464478	25.544447	17.944899
262	4	5	-0.120000	30.984513	25.527971	17.941863
263	4	4	0.010000	31.474619	26.938776	18.201828
264	4	2	-0.170000	32.994332	26.995821	18.212339
265	4	1	0.120000	33.507837	28.418833	18.474553
266	4	2	-0.170000	33.050583	29.378542	17.380753
267	4	2	-0.170000	33.050585	28.925643	19.838586
268	4	2	-0.170000	35.035091	28.373583	18.466214
269	4	7	0.060000	16.886030	16.089942	16.202747
270	4	7	0.060000	16.865979	17.761321	15.608697
271	4	7	0.060000	16.865979	17.439810	17.353511
272	4	7	0.060000	19.144898	16.745828	15.425975
273	4	7	0.060000	19.144898	16.425884	17.162278
274	4	7	0.060000	18.931549	18.882490	17.614658
275	4	7	0.060000	18.931548	19.202330	15.878922
276	4	7	0.060000	21.203531	18.167213	15.687778
277	4	7	0.060000	21.203532	17.847229	17.424296
278	4	7	0.060000	20.967026	20.298998	17.875930
279	4	7	0.060000	20.967025	20.618929	16.139698
280	4	7	0.060000	23.237963	19.583466	15.948761
281	4	7	0.060000	23.237964	19.263487	17.685251
282	4	7	0.060000	22.996754	21.713703	18.136766
283	4	7	0.060000	22.996754	22.033689	16.400238
284	4	7	0.060000	25.265439	20.994820	16.208893
285	4	7	0.060000	25.265440	20.674865	17.945255
286	4	7	0.060000	25.022584	23.124605	18.396881
287	4	7	0.060000	25.022583	23.444639	16.660097
288	4	7	0.060000	27.287415	22.399716	16.467755
289	4	7	0.060000	27.287416	22.079756	18.204143
290	4	7	0.060000	27.053426	24.529708	18.655601
291	4	7	0.060000	27.053425	24.849672	16.919191
292	4	7	0.060000	29.309995	23.784535	16.722288
293	4	7	0.060000	29.309996	23.464346	18.459920
294	4	7	0.060000	29.093526	25.911790	18.909349
295	4	7	0.060000	29.093525	26.231425	17.174727
296	4	7	0.060000	31.356381	25.168586	16.976026
297	4	7	0.060000	31.356382	24.847934	18.716166
298	4	7	0.060000	31.063946	27.268812	19.160007
299	4	7	0.060000	31.063946	27.588662	17.424216
300	4	3	0.130000	33.403000	26.673612	17.247444
301	4	3	0.130000	33.403001	26.350855	18.999014
302	4	3	0.130000	31.961839	29.473872	17.416757
303	4	3	0.130000	33.371804	28.979185	16.414994
304	4	3	0.130000	33.502998	30.355801	17.567108
305	4	3	0.130000	31.961840	29.027544	19.838927
306	4	3	0.130000	33.502999	29.905140	20.012796
307	4	3	0.130000	33.371807	28.208288	20.598571
308	4	3	0.130000	35.364939	28.017029	17.486268
309	4	3	0.130000	35.364940	27.691162	19.254710
310	4	3	0.130000	35.409734	29.384481	18.652490
311	5	6	-0.180000	37.933148	40.295645	12.241647
312	5	5	-0.120000	39.450437	40.305543	12.243471
313	5	5	-0.120000	39.978671	41.710829	12.502419
314	5	5	-0.120000	41.500724	41.721982	12.504473
315	5	5	-0.120000	42.016183	43.129512	12.763835
316	5	5	-0.120000	43.535703	43.138400	12.765472
317	5	5	-0.120000	44.046134	44.545119	13.024685
318	5	5	-0.120000	45.563857	44.550117	13.025605
319	5	5	-0.120000	46.071495	45.956420	13.284741
320	5	5	-0.120000	47.587670	45.955889	13.284642
321	5	5	-0.120000	48.099787	47.359304	13.543246
322	5	5	-0.120000	49.616141	47.342674	13.540181
323	5	5	-0.120000	50.139855	48.738779	13.797437
324	5	5	-0.120000	51.659890	48.722303	13.794401
325	5	4	0.010000	52.149996	50.133108	14.054366
326	5	2	-0.170000	53.669709	50.190153	14.064877
327	5	1	0.120000	54.183214	51.613165	14.327091
328	5	2	-0.170000	53.725960	52.572874	13.233291
329	5	2	-0.170000	53.725962	52.119975	15.691124
330	5	2	-0.170000	55.710468	51.567915	14.318752
331	5	7	0.060000	37.561407	39.284274	12.055285
332	5	7	0.060000	37.541356	40.955653	11.461235
333	5	7	0.060000	37.541356	40.634142	13.206049
334	5	7	0.060000	39.820275	39.940160	11.278513
335	5	7	0.060000	39.820275	39.620216	13.014816
336	5	7	0.060000	39.606926	42.076822	13.467196
337	5	7	0.060000	39.606925	42.396662	11.731460
338	5	7	0.060000	41.878908	41.361545	11.540316
339	5	7	0.060000	41.878909	41.041561	13.276834
340	5	7	0.060000	41.642403	43.493330	13.728468
341	5	7	0.060000	41.642402	43.813261	11.992236
342	5	7	0.060000	43.913340	42.777798	11.801299
343	5	7	0.060000	43.913341	42.457819	13.537789
344	5	7	0.060000	43.672131	44.908035	13.989304
345	5	7	0.060000	43.672131	45.228021	12.252776
346	5	7	0.060000	45.940816	44.189152	12.061431
347	5	7	0.060000	45.940817	43.869197	13.797793
348	5	7	0.060000	45.697961	46.318937	14.249419
349	5	7	0.060000	45.697960	46.638971	12.512635
350	5	7	0.060000	47.962792	45.594048	12.320293
351	5	7	0.060000	47.962793	45.274088	14.056681
352	5	7	0.060000	47.728803	47.724040	14.508139
353	5	7	0.060000	47.728802	48.044004	12.771729
354	5	7	0.060000	49.985372	46.978867	12.574826
355	5	7	0.060000	49.985373	46.658678	14.312458
356	5	7	0.060000	49.768903	49.106122	14.761887
357	5	7	0.060000	49.768902	49.425757	13.027265
358	5	7	0.060000	52.031758	48.362918	12.828564
359	5	7	0.060000	52.031759	48.042266	14.568704
360	5	7	0.060000	51.739323	50.463144	15.012545
361	5	7	0.060000	51.739323	50.782994	13.276754
362	5	3	0.130000	54.078377	49.867944	13.099982
363	5	3	0.130000	54.078378	49.545187	14.851552
364	5	3	0.130000	52.637216	52.668204	13.269295
365	5	3	0.130000	54.047181	52.173517	12.267532
366	5	3	0.130000	54.178375	53.550133	13.419646
367	5	3	0.130000	52.637217	52.221876	15.691465
368	5	3	0.130000	54.178376	53.099472	15.865334
369	5	3	0.130000	54.047184	51.402620	16.451109
370	5	3	0.130000	56.040316	51.211361	13.338806
371	5	3	0.130000	56.040317	50.885494	15.107248
372	5	3	0.130000	56.085111	52.578813	14.505028
373	6	6	-0.180000	44.654667	1.028778	19.608883
374	6	5	-0.120000	46.171956	1.038676	19.610707
375	6	5	-0.120000	46.700190	2.443962	19.869655
376	6	5	-0.120000	48.222243	2.455115	19.871709
377	6	5	-0.120000	48.737702	3.862645	20.131071
378	6	5	-0.120000	50.257222	3.871533	20.132708
379	6	5	-0.120000	50.767653	5.278252	20.391921
380	6	5	-0.120000	52.285376	5.283250	20.392841
381	6	5	-0.120000	52.793014	6.689553	20.651977
382	6	5	-0.120000	54.309189	6.689022	20.651878
383	6	5	-0.120000	54.821306	8.092437	20.910482
384	6	5	-0.120000	56.337660	8.075807	20.907417
385	6	5	-0.120000	56.861374	9.471912	21.164673
386	6	5	-0.120000	58.381409	9.455436	21.161637
387	6	4	0.010000	58.871515	10.866241	21.421602
388	6	2	-0.170000	60.391228	10.923286	21.432113
389	6	1	0.120000	60.904733	12.346298	21.694327
390	6	2	-0.170000	60.447479	13.306007	20.600527
391	6	2	-0.170000	60.447481	12.853108	23.058360
392	6	2	-0.170000	62.431987	12.301048	21.685988
393	6	7	0.060000	44.282926	0.017407	19.422521
394	6	7	0.060000	44.262875	1.688786	18.828471
395	6	7	0.060000	44.262875	1.367275	20.573285
396	6	7	0.060000	46.541794	0.673293	18.645749
397	6	7	0.060000	46.541794	0.353349	20.382052
398	6	7	0.060000	46.328445	2.809955	20.834432
399	6	7	0.060000	46.328444	3.129795	19.098696
400	6	7	0.060000	48.600427	2.094678	18.907552
401	6	7	0.060000	48.600428	1.774694	20.644070
402	6	7	0.060000	48.363922	4.226463	21.095704
403	6	7	0.060000	48.363921	4.546394	19.359472
404	6	7	0.060000	50.634859	3.510931	19.168535
405	6	7	0.060000	50.634860	3.190952	20.905025
406	6	7	0.060000	50.393650	5.641168	21.356540
407	6	7	0.060000	50.393650	5.961154	19.620012
408	6	7	0.060000	52.662335	4.922285	19.428667
409	6	7	0.060000	52.662336	4.602330	21.165029
410	6	7	0.060000	52.419480	7.052070	21.616655
411	6	7	0.060000	52.419479	7.372104	19.879871
412	6	7	0.060000	54.684311	6.327181	19.687529
413	6	7	0.060000	54.684312	6.007221	21.423917
414	6	7	0.060000	54.450322	8.457173	21.875375
415	6	7	0.060000	54.450321	8.777137	20.138965
416	6	7	0.060000	56.706891	7.712000	19.942062
417	6	7	0.060000	56.706892	7.391811	21.679694
418	6	7	0.060000	56.490422	9.839255	22.129123
419	6	7	0.060000	56.490421	10.158890	20.394501
420	6	7	0.060000	58.753277	9.096051	20.195800
421	6	7	0.060000	58.753278	8.775399	21.935940
422	6	7	0.060000	58.460842	11.196277	22.379781
423	6	7	0.060000	58.460842	11.516127	20.643990
424	6	3	0.130000	60.799896	10.601077	20.467218
425	6	3	0.130000	60.799897	10.278320	22.218788
426	6	3	0.130000	59.358735	13.401337	20.636531
427	6	3	0.130000	60.768700	12.906650	19.634768
428	6	3	0.130000	60.899894	14.283266	20.786882
429	6	3	0.130000	59.358736	12.955009	23.058701
430	6	3	0.130000	60.899895	13.832605	23.232570
431	6	3	0.130000	60.768703	12.135753	23.818345
432	6	3	0.130000	62.761835	11.944494	20.706042
433	6	3	0.130000	62.761836	11.618627	22.474484
434	6	3	0.130000	62.806630	13.311946	21.872264
435	7	6	-0.180000	39.166964	22.255600	20.556485
436	7	5	-0.120000	40.684253	22.265498	20.558309
437	7	5	-0.120000	41.212487	23.670784	20.817257
438	7	5	-0.120000	42.734540	23.681937	20.819311
439	7	5	-0.120000	43.249999	25.089467	21.078673
440	7	5	-0.120000	44.769519	25.098355	21.080310
441	7	5	-0.120000	45.279950	26.505074	21.339523
442	7	5	-0.120000	46.797673	26.510072	21.340443
443	7	5	-0.120000	47.305311	27.916375	21.599579
444	7	5	-0.120000	48.821486	27.915844	21.599480
445	7	5	-0.120000	49.333603	29.319259	21.858084
446	7	5	-0.120000	50.849957	29.302629	21.855019
447	7	5	-0.120000	51.373671	30.698734	22.112275
448	7	5	-0.120000	52.893706	30.682258	22.109239
449	7	4	0.010000	53.383812	32.093063	22.369204
450	7	2	-0.170000	54.903525	32.150108	22.379715
451	7	1	0.120000	55.417030	33.573120	22.641929
452	7	2	-0.170000	54.959776	34.532829	21.548129
453	7	2	-0.170000	54.959778	34.079930	24.005962
454	7	2	-0.170000	56.944284	33.527870	22.633590
455	7	7	0.060000	38.795223	21.244229	20.370123
456	7	7	0.060000	38.775172	22.915608	19.776073
457	7	7	0.060000	38.775172	22.594097	21.520887
458	7	7	0.060000	41.054091	21.900115	19.593351
459	7	7	0.060000	41.054091	21.580171	21.329654
460	7	7	0.060000	40.840742	24.036777	21.782034
461	7	7	0.060000	40.840741	24.356617	20.046298
462	7	7	0.060000	43.112724	23.321500	19.855154
463	7	7	0.060000	43.112725	23.001516	21.591672
464	7	7	0.060000	42.876219	25.453285	22.043306
465	7	7	0.060000	42.876218	25.773216	20.307074
466	7	7	0.060000	45.147156	24.737753	20.116137
467	7	7	0.060000	45.147157	24.417774	21.852627
468	7	7	0.060000	44.905947	26.867990	22.304142
469	7	7	0.060000	44.905947	27.187976	20.567614
470	7	7	0.060000	47.174632	26.149107	20.376269
471	7	7	0.060000	47.174633	25.829152	22.112631
472	7	7	0.060000	46.931777	28.278892	22.564257
473	7	7	0.060000	46.931776	28.598926	20.827473
474	7	7	0.060000	49.196608	27.554003	20.635131
475	7	7	0.060000	49.196609	27.234043	22.371519
476	7	7	0.060000	48.962619	29.683995	22.822977
477	7	7	0.060000	48.962618	30.003959	21.086567
478	7	7	0.060000	51.219188	28.938822	20.889664
479	7	7	0.060000	51.219189	28.618633	22.627296
480	7	7	0.060000	51.002719	31.066077	23.076725
481	7	7	0.060000	51.002718	31.385712	21.342103
482	7	7	0.060000	53.265574	30.322873	21.143402
483	7	7	0.060000	53.265575	30.002221	22.883542
484	7	7	0.060000	52.973139	32.423099	23.327383
485	7	7	0.060000	52.973139	32.742949	21.591592
486	7	3	0.130000	55.312193	31.827899	21.414820
487	7	3	0.130000	55.312194	31.505142	23.166390
488	7	3	0.130000	53.871032	34.628159	21.584133
489	7	3	0.130000	55.280997	34.133472	20.582370
490	7	3	0.130000	55.412191	35.510088	21.734484
491	7	3	0.130000	53.871033	34.181831	24.006303
492	7	3	0.130000	55.412192	35.059427	24.180172
493	7	3	0.130000	55.281000	33.362575	24.765947
494	7	3	0.130000	57.274132	33.171316	21.653644
495	7	3	0.130000	57.274133	32.845449	23.422086
496	7	3	0.130000	57.318927	34.538768	22.819866
497	8	6	-0.180000	4.021305	40.111876	12.275625
498	8	5	-0.120000	5.538594	40.121774	12.277449
499	8	5	-0.120000	6.066828	41.527060	12.536397
500	8	5	-0.120000	7.588881	41.538213	12.538451
501	8	5	-0.120000	8.104340	42.945743	12.797813
502	8	5	-0.120000	9.623860	42.954631	12.799450
503	8	5	-0.120000	10.134291	44.361350	13.058663
504	8	5	-0.120000	11.652014	44.366348	13.059583
505	8	5	-0.120000	12.159652	45.772651	13.318719
506	8	5	-0.120000	13.675827	45.772120	13.318620
507	8	5	-0.120000	14.187944	47.175535	13.577224
508	8	5	-0.120000	15.704298	47.158905	13.574159
509	8	5	-0.120000	16.228012	48.555010	13.831415
510	8	5	-0.120000	17.748047	48.538534	13.828379
511	8	4	0.010000	18.238153	49.949339	14.088344
512	8	2	-0.170000	19.757866	50.006384	14.098855
513	8	1	0.120000	20.271371	51.429396	14.361069
514	8	2	-0.170000	19.814117	52.389105	13.267269
515	8	2	-0.170000	19.814119	51.936206	15.725102
516	8	2	-0.170000	21.798625	51.384146	14.352730
517	8	7	0.060000	3.649564	39.100505	12.089263
518	8	7	0.060000	3.629513	40.771884	11.495213
519	8	7	0.060000	3.629513	40.450373	13.240027
520	8	7	0.060000	5.908432	39.756391	11.312491
521	8	7	0.060000	5.908432	39.436447	13.048794
522	8	7	0.060000	5.695083	41.893053	13.501174
523	8	7	0.060000	5.695082	42.212893	11.765438
524	8	7	0.060000	7.967065	41.177776	11.574294
525	8	7	0.060000	7.967066	40.857792	13.310812
526	8	7	0.060000	7.730560	43.309561	13.762446
527	8	7	0.060000	7.730559	43.629492	12.026214
528	8	7	0.060000	10.001497	42.594029	11.835277
529	8	7	0.060000	10.001498	42.274050	13.571767
530	8	7	0.060000	9.760288	44.724266	14.023282
531	8	7	0.060000	9.760288	45.044252	12.286754
532	8	7	0.060000	12.028973	44.005383	12.095409
533	8	7	0.060000	12.028974	43.685428	13.831771
534	8	7	0.060000	11.786118	46.135168	14.283397
535	8	7	0.060000	11.786117	46.455202	12.546613
536	8	7	0.060000	14.050949	45.410279	12.354271
537	8	7	0.060000	14.050950	45.090319	14.090659
538	8	7	0.060000	13.816960	47.540271	14.542117
539	8	7	0.060000	13.816959	47.860235	12.805707
540	8	7	0.060000	16.073529	46.795098	12.608804
541	8	7	0.060000	16.073530	46.474909	14.346436
542	8	7	0.060000	15.857060	48.922353	14.795865
543	8	7	0.060000	15.857059	49.241988	13.061243
544	8	7	0.060000	18.119915	48.179149	12.862542
545	8	7	0.060000	18.119916	47.858497	14.602682
546	8	7	0.060000	17.827480	50.279375	15.046523
547	8	7	0.060000	17.827480	50.599225	13.310732
548	8	3	0.130000	20.166534	49.684175	13.133960
549	8	3	0.130000	20.166535	49.361418	14.885530
550	8	3	0.130000	18.725373	52.484435	13.303273
551	8	3	0.130000	20.135338	51.989748	12.301510
552	8	3	0.130000	20.266532	53.366364	13.453624
553	8	3	0.130000	18.725374	52.038107	15.725443
554	8	3	0.130000	20.266533	52.915703	15.899312
555	8	3	0.130000	20.135341	51.218851	16.485087
556	8	3	0.130000	22.128473	51.027592	13.372784
557	8	3	0.130000	22.128474	50.701725	15.141226
558	8	3	0.130000	22.173268	52.395044	14.539006